<?xml version="1.0" encoding="UTF-8"?>

<!-- generated on 2026-05-01T15:47:59.766395+01:00 by Eclipse SUMO sumo 1.26.0
<sumoConfiguration xmlns:xsi="http://www.w3.org/2001/XMLSchema-instance" xsi:noNamespaceSchemaLocation="http://sumo.dlr.de/xsd/sumoConfiguration.xsd">

    <input>
        <net-file value="lust.net.xml"/>
        <route-files value="buslines.rou.xml,DUARoutes/local.0.rou.xml,DUARoutes/local.1.rou.xml,DUARoutes/local.2.rou.xml,transit.rou.xml"/>
        <additional-files value="vtypes.add.xml,busstops.add.xml,e1detectors.add.xml,lust.poly.xml,tll.static.xml"/>
    </input>

    <output>
        <summary-output value="outputs/baseline.summary.xml"/>
        <tripinfo-output value="outputs/baseline.tripinfo.xml"/>
        <tripinfo-output.write-unfinished value="True"/>
        <edgedata-output value="outputs/baseline.edgedata.xml"/>
    </output>

    <time>
        <begin value="0"/>
        <end value="86400"/>
        <step-length value="1"/>
    </time>

    <processing>
        <ignore-junction-blocker value="20"/>
        <time-to-teleport value="600"/>
        <max-depart-delay value="600"/>
    </processing>

    <routing>
        <routing-algorithm value="dijkstra"/>
        <device.rerouting.probability value="1.00"/>
        <device.rerouting.period value="300"/>
        <device.rerouting.pre-period value="300"/>
    </routing>

    <report>
        <verbose value="true"/>
        <log value="outputs/baseline.log"/>
    </report>

</sumoConfiguration>
-->

<meandata xmlns:xsi="http://www.w3.org/2001/XMLSchema-instance" xsi:noNamespaceSchemaLocation="http://sumo.dlr.de/xsd/meandata_file.xsd">
    <interval begin="0.00" end="86400.00" id="DEFAULT_EDGEDATA">
        <edge id="--30244#0" sampledSeconds="20230.91" traveltime="67.03" overlapTraveltime="67.97" density="0.36" overlapDensity="0.36" laneDensity="0.18" occupancy="0.10" waitingTime="4198.00" timeLoss="6206.97" speed="9.53" speedRelative="0.69" departed="24" arrived="157" entered="371" left="238" laneChangedFrom="138" laneChangedTo="138" flow="12.42"/>
        <edge id="--30244#1" sampledSeconds="4094.76" traveltime="11.97" overlapTraveltime="12.49" density="0.31" overlapDensity="0.32" laneDensity="0.16" occupancy="0.09" waitingTime="14.00" timeLoss="497.90" speed="12.14" speedRelative="0.87" departed="37" arrived="41" entered="329" left="325" laneChangedFrom="69" laneChangedTo="69" flow="13.67"/>
        <edge id="--30244#2" sampledSeconds="5077.32" traveltime="12.55" overlapTraveltime="13.19" density="0.43" overlapDensity="0.45" laneDensity="0.22" occupancy="0.14" waitingTime="14.00" timeLoss="633.13" speed="10.38" speedRelative="0.75" departed="16" arrived="35" entered="396" left="377" laneChangedFrom="45" laneChangedTo="45" flow="16.18"/>
        <edge id="--30244#3" sampledSeconds="5581.45" traveltime="12.06" overlapTraveltime="12.52" density="0.41" overlapDensity="0.42" laneDensity="0.20" occupancy="0.11" waitingTime="5.00" timeLoss="502.55" speed="12.66" speedRelative="0.91" departed="13" arrived="45" entered="463" left="431" laneChangedFrom="98" laneChangedTo="98" flow="18.60"/>
        <edge id="--30244#4" sampledSeconds="6241.25" traveltime="13.32" overlapTraveltime="13.90" density="0.48" overlapDensity="0.50" laneDensity="0.24" occupancy="0.15" waitingTime="18.00" timeLoss="746.54" speed="10.79" speedRelative="0.78" departed="36" arrived="40" entered="456" left="452" laneChangedFrom="177" laneChangedTo="177" flow="18.81"/>
        <edge id="--30246" sampledSeconds="524.29" traveltime="15.92" overlapTraveltime="16.52" density="0.04" overlapDensity="0.04" laneDensity="0.04" occupancy="0.02" waitingTime="10.00" timeLoss="197.42" speed="8.50" speedRelative="0.61" departed="0" arrived="58" entered="59" left="0" laneChangedFrom="0" laneChangedTo="0" flow="1.37"/>
        <edge id="--30248" sampledSeconds="830.32" traveltime="7.72" overlapTraveltime="8.17" density="0.10" overlapDensity="0.11" laneDensity="0.10" occupancy="0.05" waitingTime="5.00" timeLoss="119.85" speed="11.77" speedRelative="0.85" departed="7" arrived="13" entered="103" left="97" laneChangedFrom="0" laneChangedTo="0" flow="4.24"/>
        <edge id="--30250" sampledSeconds="1194.38" traveltime="7.98" overlapTraveltime="8.75" density="0.17" overlapDensity="0.18" laneDensity="0.17" occupancy="0.09" waitingTime="39.00" timeLoss="409.63" speed="9.14" speedRelative="0.66" departed="8" arrived="21" entered="144" left="131" laneChangedFrom="0" laneChangedTo="0" flow="5.70"/>
        <edge id="--30252" sampledSeconds="1718.02" traveltime="13.87" overlapTraveltime="14.57" density="0.14" overlapDensity="0.15" laneDensity="0.14" occupancy="0.07" waitingTime="24.00" timeLoss="531.67" speed="9.47" speedRelative="0.68" departed="39" arrived="54" entered="123" left="108" laneChangedFrom="0" laneChangedTo="0" flow="4.93"/>
        <edge id="--30254#0" sampledSeconds="64.73" traveltime="6.60" overlapTraveltime="9.30" density="0.06" overlapDensity="0.06" laneDensity="0.06" occupancy="0.02" waitingTime="10.00" timeLoss="56.14" speed="1.88" speedRelative="0.13" departed="0" arrived="21" entered="21" left="0" laneChangedFrom="0" laneChangedTo="0" flow="0.41"/>
        <edge id="--30254#1" sampledSeconds="108.97" traveltime="5.66" overlapTraveltime="6.50" density="0.04" overlapDensity="0.05" laneDensity="0.04" occupancy="0.02" waitingTime="0.00" timeLoss="74.02" speed="4.54" speedRelative="0.33" departed="27" arrived="0" entered="0" left="27" laneChangedFrom="0" laneChangedTo="0" flow="0.61"/>
        <edge id="--30256#0" sampledSeconds="182216.25" traveltime="50.25" overlapTraveltime="51.35" density="13.23" overlapDensity="13.52" laneDensity="4.41" occupancy="2.32" waitingTime="120282.00" timeLoss="140642.40" speed="3.14" speedRelative="0.23" departed="41" arrived="10" entered="3537" left="3568" laneChangedFrom="3039" laneChangedTo="3039" flow="147.89"/>
        <edge id="--30256#1" sampledSeconds="166984.82" traveltime="49.68" overlapTraveltime="50.77" density="5.29" overlapDensity="5.40" laneDensity="1.76" occupancy="0.89" waitingTime="57941.00" timeLoss="79704.04" speed="7.15" speedRelative="0.51" departed="115" arrived="40" entered="3244" left="3316" laneChangedFrom="3937" laneChangedTo="3937" flow="137.05"/>
        <edge id="--30256#2" sampledSeconds="76209.28" traveltime="22.62" overlapTraveltime="23.49" density="8.75" overlapDensity="9.08" laneDensity="2.92" occupancy="1.48" waitingTime="40459.00" timeLoss="51968.41" speed="4.35" speedRelative="0.31" departed="40" arrived="15" entered="3226" left="3249" laneChangedFrom="1331" laneChangedTo="1331" flow="135.19"/>
        <edge id="--30256#3" sampledSeconds="27955.87" traveltime="8.56" overlapTraveltime="8.97" density="3.13" overlapDensity="3.28" laneDensity="1.04" occupancy="0.52" waitingTime="6.00" timeLoss="4247.56" speed="11.58" speedRelative="0.83" departed="70" arrived="6" entered="3085" left="3149" laneChangedFrom="1082" laneChangedTo="1082" flow="129.92"/>
        <edge id="--30258" sampledSeconds="79.40" traveltime="10.50" overlapTraveltime="11.29" density="0.02" overlapDensity="0.02" laneDensity="0.02" occupancy="0.01" waitingTime="5.00" timeLoss="53.19" speed="4.74" speedRelative="0.34" departed="13" arrived="0" entered="0" left="13" laneChangedFrom="0" laneChangedTo="0" flow="0.27"/>
        <edge id="--30260" sampledSeconds="70946.34" traveltime="40.44" overlapTraveltime="41.76" density="1.32" overlapDensity="1.36" laneDensity="0.66" occupancy="0.34" waitingTime="2502.00" timeLoss="8451.08" speed="14.53" speedRelative="0.87" departed="146" arrived="150" entered="1697" left="1693" laneChangedFrom="349" laneChangedTo="349" flow="70.78"/>
        <edge id="--30262#0" sampledSeconds="3298.43" traveltime="13.92" overlapTraveltime="14.66" density="0.23" overlapDensity="0.25" laneDensity="0.23" occupancy="0.12" waitingTime="45.00" timeLoss="682.54" speed="10.91" speedRelative="0.79" departed="12" arrived="23" entered="230" left="219" laneChangedFrom="0" laneChangedTo="0" flow="9.38"/>
        <edge id="--30262#1" sampledSeconds="1707.58" traveltime="9.98" overlapTraveltime="10.39" density="0.16" overlapDensity="0.17" laneDensity="0.16" occupancy="0.08" waitingTime="3.00" timeLoss="233.90" speed="11.90" speedRelative="0.86" departed="19" arrived="20" entered="164" left="163" laneChangedFrom="0" laneChangedTo="0" flow="6.85"/>
        <edge id="--30262#2" sampledSeconds="1350.45" traveltime="11.30" overlapTraveltime="11.95" density="0.12" overlapDensity="0.13" laneDensity="0.12" occupancy="0.06" waitingTime="13.00" timeLoss="319.28" speed="10.65" speedRelative="0.77" departed="15" arrived="19" entered="116" left="112" laneChangedFrom="0" laneChangedTo="0" flow="4.71"/>
        <edge id="--30264#0" sampledSeconds="241.08" traveltime="18.26" overlapTraveltime="18.67" density="0.01" overlapDensity="0.02" laneDensity="0.01" occupancy="0.01" waitingTime="0.00" timeLoss="71.77" speed="9.85" speedRelative="0.71" departed="23" arrived="0" entered="3" left="26" laneChangedFrom="0" laneChangedTo="0" flow="0.52"/>
        <edge id="--30264#1" sampledSeconds="171.46" traveltime="6.12" overlapTraveltime="7.85" density="0.12" overlapDensity="0.12" laneDensity="0.12" occupancy="0.05" waitingTime="13.00" timeLoss="138.20" speed="2.72" speedRelative="0.20" departed="0" arrived="46" entered="49" left="3" laneChangedFrom="0" laneChangedTo="0" flow="1.16"/>
        <edge id="--30266" sampledSeconds="5421.19" traveltime="25.73" overlapTraveltime="26.65" density="0.47" overlapDensity="0.49" laneDensity="0.47" occupancy="0.24" waitingTime="2654.00" timeLoss="3465.43" speed="5.02" speedRelative="0.36" departed="18" arrived="29" entered="209" left="198" laneChangedFrom="0" laneChangedTo="0" flow="8.49"/>
        <edge id="--30270#0" sampledSeconds="821.90" traveltime="21.45" overlapTraveltime="21.95" density="0.04" overlapDensity="0.04" laneDensity="0.04" occupancy="0.02" waitingTime="8.00" timeLoss="230.28" speed="10.02" speedRelative="0.72" departed="0" arrived="73" entered="73" left="0" laneChangedFrom="0" laneChangedTo="0" flow="1.60"/>
        <edge id="--30270#1" sampledSeconds="732.87" traveltime="2.94" overlapTraveltime="3.44" density="0.21" overlapDensity="0.24" laneDensity="0.21" occupancy="0.13" waitingTime="2.00" timeLoss="99.65" speed="11.91" speedRelative="0.86" departed="10" arrived="9" entered="213" left="214" laneChangedFrom="0" laneChangedTo="0" flow="8.92"/>
        <edge id="--30272" sampledSeconds="1432.92" traveltime="12.59" overlapTraveltime="13.24" density="0.11" overlapDensity="0.12" laneDensity="0.11" occupancy="0.06" waitingTime="7.00" timeLoss="284.30" speed="10.90" speedRelative="0.78" departed="1" arrived="31" entered="123" left="93" laneChangedFrom="0" laneChangedTo="0" flow="4.53"/>
        <edge id="--30274" sampledSeconds="101.01" traveltime="2.55" overlapTraveltime="3.20" density="0.05" overlapDensity="0.07" laneDensity="0.05" occupancy="0.03" waitingTime="0.00" timeLoss="49.43" speed="6.87" speedRelative="0.49" departed="7" arrived="0" entered="26" left="33" laneChangedFrom="0" laneChangedTo="0" flow="1.30"/>
        <edge id="--30278" sampledSeconds="584.13" traveltime="3.86" overlapTraveltime="4.86" density="0.84" overlapDensity="1.04" laneDensity="0.42" occupancy="0.20" waitingTime="257.00" timeLoss="486.04" speed="2.36" speedRelative="0.17" departed="5" arrived="14" entered="126" left="117" laneChangedFrom="110" laneChangedTo="110" flow="5.11"/>
        <edge id="--30280" sampledSeconds="17101.92" traveltime="17.14" overlapTraveltime="17.81" density="0.98" overlapDensity="1.02" laneDensity="0.98" occupancy="0.49" waitingTime="96.00" timeLoss="2722.91" speed="11.17" speedRelative="0.80" departed="16" arrived="32" entered="967" left="951" laneChangedFrom="0" laneChangedTo="0" flow="40.01"/>
        <edge id="--30282" sampledSeconds="3921.95" traveltime="31.66" overlapTraveltime="32.47" density="0.13" overlapDensity="0.13" laneDensity="0.13" occupancy="0.07" waitingTime="121.00" timeLoss="825.38" speed="10.80" speedRelative="0.78" departed="42" arrived="54" entered="126" left="114" laneChangedFrom="0" laneChangedTo="0" flow="5.04"/>
        <edge id="--30284#0" sampledSeconds="221.15" traveltime="10.16" overlapTraveltime="10.90" density="0.04" overlapDensity="0.04" laneDensity="0.04" occupancy="0.02" waitingTime="5.00" timeLoss="111.65" speed="6.92" speedRelative="0.50" departed="0" arrived="40" entered="40" left="0" laneChangedFrom="0" laneChangedTo="0" flow="0.91"/>
        <edge id="--30286#0" sampledSeconds="352.82" traveltime="12.86" overlapTraveltime="13.58" density="0.05" overlapDensity="0.05" laneDensity="0.05" occupancy="0.02" waitingTime="10.00" timeLoss="182.74" speed="6.70" speedRelative="0.48" departed="0" arrived="60" entered="60" left="0" laneChangedFrom="0" laneChangedTo="0" flow="1.14"/>
        <edge id="--30286#1" sampledSeconds="1216.02" traveltime="8.21" overlapTraveltime="9.02" density="0.14" overlapDensity="0.15" laneDensity="0.14" occupancy="0.07" waitingTime="2.00" timeLoss="265.72" speed="10.63" speedRelative="0.77" departed="10" arrived="11" entered="136" left="135" laneChangedFrom="0" laneChangedTo="0" flow="5.61"/>
        <edge id="--30286#2" sampledSeconds="1141.95" traveltime="9.83" overlapTraveltime="10.24" density="0.11" overlapDensity="0.12" laneDensity="0.11" occupancy="0.06" waitingTime="4.00" timeLoss="181.88" speed="11.44" speedRelative="0.82" departed="18" arrived="20" entered="113" left="111" laneChangedFrom="0" laneChangedTo="0" flow="4.65"/>
        <edge id="--30286#3" sampledSeconds="620.38" traveltime="3.82" overlapTraveltime="4.24" density="0.14" overlapDensity="0.16" laneDensity="0.14" occupancy="0.07" waitingTime="0.00" timeLoss="86.17" speed="11.80" speedRelative="0.85" departed="10" arrived="10" entered="144" left="144" laneChangedFrom="0" laneChangedTo="0" flow="6.11"/>
        <edge id="--30286#4" sampledSeconds="1140.32" traveltime="5.65" overlapTraveltime="6.12" density="0.20" overlapDensity="0.21" laneDensity="0.20" occupancy="0.10" waitingTime="4.00" timeLoss="224.43" speed="11.04" speedRelative="0.79" departed="5" arrived="16" entered="190" left="179" laneChangedFrom="0" laneChangedTo="0" flow="7.79"/>
        <edge id="--30288#0" sampledSeconds="565.24" traveltime="7.60" overlapTraveltime="8.29" density="0.10" overlapDensity="0.11" laneDensity="0.10" occupancy="0.05" waitingTime="3.00" timeLoss="241.25" speed="7.93" speedRelative="0.57" departed="27" arrived="19" entered="60" left="68" laneChangedFrom="0" laneChangedTo="0" flow="2.84"/>
        <edge id="--30288#1" sampledSeconds="387.33" traveltime="5.62" overlapTraveltime="6.06" density="0.07" overlapDensity="0.07" laneDensity="0.07" occupancy="0.03" waitingTime="4.00" timeLoss="78.10" speed="11.12" speedRelative="0.80" departed="4" arrived="16" entered="72" left="60" laneChangedFrom="0" laneChangedTo="0" flow="2.68"/>
        <edge id="--30290" sampledSeconds="1547.80" traveltime="14.32" overlapTraveltime="15.04" density="0.11" overlapDensity="0.12" laneDensity="0.11" occupancy="0.06" waitingTime="1.00" timeLoss="377.31" speed="10.35" speedRelative="0.75" departed="39" arrived="7" entered="86" left="118" laneChangedFrom="0" laneChangedTo="0" flow="4.26"/>
        <edge id="--30294#0" sampledSeconds="10032.21" traveltime="21.64" overlapTraveltime="23.08" density="0.93" overlapDensity="0.99" laneDensity="0.93" occupancy="0.55" waitingTime="3972.00" timeLoss="6177.50" speed="5.34" speedRelative="0.38" departed="23" arrived="32" entered="437" left="428" laneChangedFrom="0" laneChangedTo="0" flow="18.11"/>
        <edge id="--30294#1" sampledSeconds="3955.22" traveltime="13.96" overlapTraveltime="14.82" density="0.27" overlapDensity="0.29" laneDensity="0.27" occupancy="0.18" waitingTime="27.00" timeLoss="722.94" speed="11.21" speedRelative="0.81" departed="27" arrived="28" entered="266" left="264" laneChangedFrom="0" laneChangedTo="0" flow="11.13"/>
        <edge id="--30296" sampledSeconds="1172.95" traveltime="29.03" overlapTraveltime="29.55" density="0.05" overlapDensity="0.05" laneDensity="0.05" occupancy="0.02" waitingTime="11.00" timeLoss="323.91" speed="9.87" speedRelative="0.71" departed="0" arrived="89" entered="89" left="0" laneChangedFrom="0" laneChangedTo="0" flow="1.68"/>
        <edge id="--30304#0" sampledSeconds="6367.36" traveltime="76.25" overlapTraveltime="76.65" density="0.08" overlapDensity="0.08" laneDensity="0.08" occupancy="0.04" waitingTime="22.00" timeLoss="869.39" speed="11.88" speedRelative="0.86" departed="80" arrived="98" entered="98" left="80" laneChangedFrom="0" laneChangedTo="0" flow="3.46"/>
        <edge id="--30304#1" sampledSeconds="1009.14" traveltime="6.54" overlapTraveltime="7.08" density="0.15" overlapDensity="0.16" laneDensity="0.15" occupancy="0.08" waitingTime="7.00" timeLoss="206.94" speed="10.80" speedRelative="0.78" departed="19" arrived="15" entered="138" left="142" laneChangedFrom="0" laneChangedTo="0" flow="5.94"/>
        <edge id="--30304#2" sampledSeconds="1234.03" traveltime="6.22" overlapTraveltime="6.75" density="0.19" overlapDensity="0.20" laneDensity="0.19" occupancy="0.09" waitingTime="7.00" timeLoss="215.76" speed="11.21" speedRelative="0.81" departed="15" arrived="20" entered="185" left="180" laneChangedFrom="0" laneChangedTo="0" flow="7.62"/>
        <edge id="--30306#0" sampledSeconds="899.12" traveltime="25.74" overlapTraveltime="26.29" density="0.04" overlapDensity="0.04" laneDensity="0.04" occupancy="0.02" waitingTime="21.00" timeLoss="263.31" speed="9.51" speedRelative="0.68" departed="0" arrived="78" entered="78" left="0" laneChangedFrom="0" laneChangedTo="0" flow="1.46"/>
        <edge id="--30306#1" sampledSeconds="1502.95" traveltime="10.87" overlapTraveltime="11.42" density="0.13" overlapDensity="0.14" laneDensity="0.13" occupancy="0.07" waitingTime="5.00" timeLoss="221.93" speed="11.67" speedRelative="0.84" departed="0" arrived="33" entered="148" left="115" laneChangedFrom="0" laneChangedTo="0" flow="5.51"/>
        <edge id="--30306#2" sampledSeconds="3435.28" traveltime="7.88" overlapTraveltime="8.53" density="0.56" overlapDensity="0.59" laneDensity="0.56" occupancy="0.40" waitingTime="74.00" timeLoss="617.37" speed="8.74" speedRelative="0.63" departed="33" arrived="21" entered="390" left="402" laneChangedFrom="0" laneChangedTo="0" flow="17.19"/>
        <edge id="--30306#3" sampledSeconds="1734.94" traveltime="3.88" overlapTraveltime="4.28" density="0.39" overlapDensity="0.43" laneDensity="0.39" occupancy="0.20" waitingTime="5.00" timeLoss="188.18" speed="12.24" speedRelative="0.88" departed="0" arrived="30" entered="421" left="391" laneChangedFrom="0" laneChangedTo="0" flow="16.97"/>
        <edge id="--30306#4" sampledSeconds="2332.90" traveltime="4.48" overlapTraveltime="4.88" density="0.45" overlapDensity="0.49" laneDensity="0.45" occupancy="0.23" waitingTime="6.00" timeLoss="240.11" speed="12.32" speedRelative="0.89" departed="0" arrived="31" entered="495" left="464" laneChangedFrom="0" laneChangedTo="0" flow="19.96"/>
        <edge id="--30306#5" sampledSeconds="8417.99" traveltime="13.62" overlapTraveltime="14.02" density="0.55" overlapDensity="0.57" laneDensity="0.55" occupancy="0.28" waitingTime="5.00" timeLoss="718.45" speed="12.58" speedRelative="0.91" departed="28" arrived="35" entered="606" left="599" laneChangedFrom="0" laneChangedTo="0" flow="25.01"/>
        <edge id="--30306#6" sampledSeconds="2661.86" traveltime="2.56" overlapTraveltime="3.11" density="0.94" overlapDensity="1.14" laneDensity="0.94" occupancy="0.48" waitingTime="4.00" timeLoss="667.53" speed="10.28" speedRelative="0.74" departed="4" arrived="7" entered="857" left="854" laneChangedFrom="0" laneChangedTo="0" flow="35.64"/>
        <edge id="--30314#0" sampledSeconds="30207.31" traveltime="16.34" overlapTraveltime="16.77" density="1.37" overlapDensity="1.40" laneDensity="0.46" occupancy="0.26" waitingTime="33.00" timeLoss="4712.65" speed="15.18" speedRelative="0.78" departed="50" arrived="21" entered="1792" left="1821" laneChangedFrom="770" laneChangedTo="770" flow="75.16"/>
        <edge id="--30314#1" sampledSeconds="50986.52" traveltime="52.81" overlapTraveltime="53.61" density="1.96" overlapDensity="2.02" laneDensity="0.65" occupancy="0.33" waitingTime="20988.00" timeLoss="36219.95" speed="5.55" speedRelative="0.29" departed="1767" arrived="7" entered="0" left="1760" laneChangedFrom="682" laneChangedTo="682" flow="39.05"/>
        <edge id="--30316" sampledSeconds="23102.64" traveltime="115.94" overlapTraveltime="116.45" density="0.20" overlapDensity="0.20" laneDensity="0.20" occupancy="0.10" waitingTime="469.00" timeLoss="3069.51" speed="11.77" speedRelative="0.85" departed="19" arrived="358" entered="371" left="32" laneChangedFrom="0" laneChangedTo="0" flow="8.29"/>
        <edge id="--30318" sampledSeconds="3472.93" traveltime="8.32" overlapTraveltime="8.98" density="0.43" overlapDensity="0.46" laneDensity="0.43" occupancy="0.21" waitingTime="5.79" timeLoss="911.63" speed="10.19" speedRelative="0.73" departed="0" arrived="31" entered="404" left="373" laneChangedFrom="0" laneChangedTo="0" flow="16.14"/>
        <edge id="--30320" sampledSeconds="1242.78" traveltime="22.65" overlapTraveltime="23.18" density="0.07" overlapDensity="0.07" laneDensity="0.07" occupancy="0.03" waitingTime="16.00" timeLoss="357.84" speed="9.64" speedRelative="0.69" departed="0" arrived="106" entered="106" left="0" laneChangedFrom="0" laneChangedTo="0" flow="2.29"/>
        <edge id="--30328#0" sampledSeconds="2799.19" traveltime="12.96" overlapTraveltime="13.74" density="0.22" overlapDensity="0.23" laneDensity="0.22" occupancy="0.11" waitingTime="15.00" timeLoss="639.47" speed="10.65" speedRelative="0.77" departed="46" arrived="73" entered="212" left="185" laneChangedFrom="0" laneChangedTo="0" flow="8.52"/>
        <edge id="--30328#1" sampledSeconds="2117.15" traveltime="12.32" overlapTraveltime="12.73" density="0.18" overlapDensity="0.19" laneDensity="0.18" occupancy="0.09" waitingTime="14.00" timeLoss="467.95" speed="10.74" speedRelative="0.77" departed="54" arrived="74" entered="173" left="153" laneChangedFrom="0" laneChangedTo="0" flow="6.95"/>
        <edge id="--30328#2" sampledSeconds="646.38" traveltime="2.52" overlapTraveltime="2.93" density="0.28" overlapDensity="0.31" laneDensity="0.28" occupancy="0.13" waitingTime="5.96" timeLoss="181.51" speed="9.86" speedRelative="0.71" departed="2" arrived="58" entered="253" left="197" laneChangedFrom="0" laneChangedTo="0" flow="9.40"/>
        <edge id="--30328#3" sampledSeconds="1451.75" traveltime="4.99" overlapTraveltime="5.42" density="0.28" overlapDensity="0.30" laneDensity="0.28" occupancy="0.14" waitingTime="7.00" timeLoss="277.27" speed="11.11" speedRelative="0.80" departed="2" arrived="37" entered="288" left="253" laneChangedFrom="0" laneChangedTo="0" flow="11.22"/>
        <edge id="--30330" sampledSeconds="236.85" traveltime="10.29" overlapTraveltime="11.06" density="0.04" overlapDensity="0.04" laneDensity="0.04" occupancy="0.02" waitingTime="1.00" timeLoss="129.57" speed="6.21" speedRelative="0.45" departed="35" arrived="0" entered="0" left="35" laneChangedFrom="0" laneChangedTo="0" flow="0.85"/>
        <edge id="--30334#0" sampledSeconds="2893.36" traveltime="21.71" overlapTraveltime="22.51" density="0.77" overlapDensity="0.81" laneDensity="0.77" occupancy="0.39" waitingTime="1955.00" timeLoss="2460.77" speed="2.07" speedRelative="0.15" departed="29" arrived="0" entered="112" left="141" laneChangedFrom="0" laneChangedTo="0" flow="5.30"/>
        <edge id="--30334#1" sampledSeconds="2435.03" traveltime="24.39" overlapTraveltime="25.19" density="0.10" overlapDensity="0.10" laneDensity="0.10" occupancy="0.05" waitingTime="9.00" timeLoss="469.71" speed="11.12" speedRelative="0.80" departed="33" arrived="46" entered="101" left="88" laneChangedFrom="0" laneChangedTo="0" flow="4.03"/>
        <edge id="--30334#2" sampledSeconds="293.71" traveltime="21.30" overlapTraveltime="21.59" density="0.02" overlapDensity="0.02" laneDensity="0.02" occupancy="0.01" waitingTime="0.00" timeLoss="95.42" speed="9.52" speedRelative="0.69" departed="29" arrived="0" entered="0" left="29" laneChangedFrom="0" laneChangedTo="0" flow="0.55"/>
        <edge id="--30336#0" sampledSeconds="17770.00" traveltime="24.51" overlapTraveltime="24.91" density="0.57" overlapDensity="0.58" laneDensity="0.19" occupancy="0.10" waitingTime="18.00" timeLoss="2163.51" speed="14.44" speedRelative="0.87" departed="77" arrived="127" entered="735" left="685" laneChangedFrom="807" laneChangedTo="807" flow="29.74"/>
        <edge id="--30336#1" sampledSeconds="52046.71" traveltime="69.62" overlapTraveltime="70.70" density="0.72" overlapDensity="0.73" laneDensity="0.24" occupancy="0.12" waitingTime="9089.00" timeLoss="14963.46" speed="11.77" speedRelative="0.71" departed="139" arrived="232" entered="788" left="695" laneChangedFrom="1064" laneChangedTo="1064" flow="30.69"/>
        <edge id="--30336#2" sampledSeconds="49825.08" traveltime="24.04" overlapTraveltime="24.71" density="1.82" overlapDensity="1.88" laneDensity="0.61" occupancy="0.31" waitingTime="10234.00" timeLoss="16889.44" speed="12.65" speedRelative="0.65" departed="53" arrived="105" entered="2043" left="1990" laneChangedFrom="524" laneChangedTo="524" flow="84.05"/>
        <edge id="--30344" sampledSeconds="318.88" traveltime="1.70" overlapTraveltime="2.15" density="0.16" overlapDensity="0.20" laneDensity="0.16" occupancy="0.08" waitingTime="1.00" timeLoss="58.56" speed="11.14" speedRelative="0.80" departed="4" arrived="9" entered="151" left="146" laneChangedFrom="0" laneChangedTo="0" flow="6.23"/>
        <edge id="--30346#0" sampledSeconds="6462.37" traveltime="26.52" overlapTraveltime="27.47" density="0.60" overlapDensity="0.62" laneDensity="0.60" occupancy="0.36" waitingTime="3291.00" timeLoss="4311.75" speed="4.61" speedRelative="0.33" departed="21" arrived="16" entered="237" left="242" laneChangedFrom="0" laneChangedTo="0" flow="9.78"/>
        <edge id="--30346#1" sampledSeconds="1341.63" traveltime="18.16" overlapTraveltime="18.87" density="0.09" overlapDensity="0.09" laneDensity="0.09" occupancy="0.04" waitingTime="93.00" timeLoss="442.67" speed="9.37" speedRelative="0.67" departed="29" arrived="36" entered="72" left="65" laneChangedFrom="0" laneChangedTo="0" flow="2.97"/>
        <edge id="--30348#0" sampledSeconds="84147.56" traveltime="30.53" overlapTraveltime="31.25" density="7.11" overlapDensity="7.28" laneDensity="3.56" occupancy="1.81" waitingTime="42854.00" timeLoss="57019.09" speed="4.44" speedRelative="0.32" departed="76" arrived="4" entered="2654" left="2726" laneChangedFrom="76" laneChangedTo="76" flow="112.16"/>
        <edge id="--30348#1" sampledSeconds="8988.25" traveltime="2.97" overlapTraveltime="3.40" density="2.84" overlapDensity="3.24" laneDensity="1.42" occupancy="0.71" waitingTime="600.00" timeLoss="1852.46" speed="10.94" speedRelative="0.79" departed="15" arrived="12" entered="2646" left="2649" laneChangedFrom="257" laneChangedTo="257" flow="110.29"/>
        <edge id="--30348#2" sampledSeconds="27406.19" traveltime="9.61" overlapTraveltime="10.14" density="2.71" overlapDensity="2.85" laneDensity="1.35" occupancy="0.73" waitingTime="367.31" timeLoss="3877.16" speed="11.51" speedRelative="0.83" departed="32" arrived="28" entered="2702" left="2706" laneChangedFrom="464" laneChangedTo="464" flow="112.87"/>
        <edge id="--30348#3" sampledSeconds="13398.91" traveltime="4.87" overlapTraveltime="5.35" density="2.63" overlapDensity="2.85" laneDensity="1.31" occupancy="0.77" waitingTime="19.00" timeLoss="1507.01" speed="11.25" speedRelative="0.81" departed="16" arrived="15" entered="2534" left="2535" laneChangedFrom="155" laneChangedTo="155" flow="105.54"/>
        <edge id="--30348#4" sampledSeconds="24830.11" traveltime="9.53" overlapTraveltime="9.95" density="2.39" overlapDensity="2.50" laneDensity="1.20" occupancy="0.61" waitingTime="7.00" timeLoss="3092.20" speed="12.07" speedRelative="0.87" departed="19" arrived="33" entered="2502" left="2488" laneChangedFrom="258" laneChangedTo="258" flow="103.97"/>
        <edge id="--30348#5" sampledSeconds="83596.84" traveltime="32.95" overlapTraveltime="33.92" density="5.95" overlapDensity="6.12" laneDensity="2.97" occupancy="1.59" waitingTime="40974.00" timeLoss="53446.25" speed="4.82" speedRelative="0.35" departed="54" arrived="24" entered="2453" left="2483" laneChangedFrom="682" laneChangedTo="682" flow="102.78"/>
        <edge id="--30350" sampledSeconds="126.23" traveltime="6.31" overlapTraveltime="6.68" density="0.04" overlapDensity="0.05" laneDensity="0.04" occupancy="0.02" waitingTime="0.00" timeLoss="78.19" speed="5.04" speedRelative="0.36" departed="30" arrived="0" entered="0" left="30" laneChangedFrom="0" laneChangedTo="0" flow="0.71"/>
        <edge id="--30352" sampledSeconds="1449.03" traveltime="12.48" overlapTraveltime="13.18" density="0.13" overlapDensity="0.14" laneDensity="0.13" occupancy="0.07" waitingTime="3.00" timeLoss="434.85" speed="9.48" speedRelative="0.68" departed="35" arrived="41" entered="111" left="105" laneChangedFrom="0" laneChangedTo="0" flow="4.59"/>
        <edge id="--30354" sampledSeconds="6552.28" traveltime="14.68" overlapTraveltime="15.62" density="0.58" overlapDensity="0.62" laneDensity="0.58" occupancy="0.30" waitingTime="1169.00" timeLoss="2681.08" speed="8.19" speedRelative="0.59" departed="31" arrived="25" entered="417" left="423" laneChangedFrom="0" laneChangedTo="0" flow="17.47"/>
        <edge id="--30358#0" sampledSeconds="10277.59" traveltime="25.59" overlapTraveltime="26.69" density="1.02" overlapDensity="1.06" laneDensity="0.51" occupancy="0.34" waitingTime="5024.00" timeLoss="6884.96" speed="4.44" speedRelative="0.27" departed="19" arrived="26" entered="390" left="383" laneChangedFrom="46" laneChangedTo="46" flow="16.10"/>