<?xml version="1.0" encoding="UTF-8"?>

<!-- generated on 2026-05-01T17:11:54.186558+01:00 by Eclipse SUMO sumo 1.26.0
<sumoConfiguration xmlns:xsi="http://www.w3.org/2001/XMLSchema-instance" xsi:noNamespaceSchemaLocation="http://sumo.dlr.de/xsd/sumoConfiguration.xsd">

    <input>
        <net-file value="lust.net.xml"/>
        <route-files value="buslines.rou.xml,DUARoutes/local.0.rou.xml,DUARoutes/local.1.rou.xml,DUARoutes/local.2.rou.xml,transit.rou.xml"/>
        <additional-files value="vtypes.add.xml,busstops.add.xml,e1detectors.add.xml,lust.poly.xml,tll.static.xml,disaster_closures.add.xml"/>
    </input>

    <output>
        <summary-output value="outputs/disaster.summary.xml"/>
        <tripinfo-output value="outputs/disaster.tripinfo.xml"/>
        <tripinfo-output.write-unfinished value="True"/>
        <edgedata-output value="outputs/disaster.edgedata.xml"/>
    </output>

    <time>
        <begin value="0"/>
        <end value="86400"/>
        <step-length value="1"/>
    </time>

    <processing>
        <ignore-junction-blocker value="20"/>
        <ignore-route-errors value="true"/>
        <time-to-teleport value="600"/>
        <max-depart-delay value="600"/>
    </processing>

    <routing>
        <routing-algorithm value="dijkstra"/>
        <device.rerouting.probability value="1.00"/>
        <device.rerouting.period value="300"/>
        <device.rerouting.pre-period value="300"/>
    </routing>

    <report>
        <verbose value="true"/>
        <log value="outputs/disaster.log"/>
    </report>

</sumoConfiguration>
-->

<meandata xmlns:xsi="http://www.w3.org/2001/XMLSchema-instance" xsi:noNamespaceSchemaLocation="http://sumo.dlr.de/xsd/meandata_file.xsd">
    <interval begin="0.00" end="86400.00" id="DEFAULT_EDGEDATA">
        <edge id="--30244#0" sampledSeconds="20250.10" traveltime="65.49" overlapTraveltime="66.39" density="0.36" overlapDensity="0.36" laneDensity="0.18" occupancy="0.10" waitingTime="3799.00" timeLoss="5826.18" speed="9.76" speedRelative="0.70" departed="24" arrived="156" entered="369" left="237" laneChangedFrom="135" laneChangedTo="135" flow="12.73"/>
        <edge id="--30244#1" sampledSeconds="4189.75" traveltime="12.01" overlapTraveltime="12.53" density="0.32" overlapDensity="0.33" laneDensity="0.16" occupancy="0.09" waitingTime="8.00" timeLoss="520.39" speed="12.10" speedRelative="0.87" departed="37" arrived="41" entered="334" left="330" laneChangedFrom="69" laneChangedTo="69" flow="13.94"/>
        <edge id="--30244#2" sampledSeconds="5075.38" traveltime="12.52" overlapTraveltime="13.16" density="0.43" overlapDensity="0.45" laneDensity="0.22" occupancy="0.14" waitingTime="15.00" timeLoss="624.38" speed="10.41" speedRelative="0.75" departed="16" arrived="35" entered="400" left="381" laneChangedFrom="38" laneChangedTo="38" flow="16.20"/>
        <edge id="--30244#3" sampledSeconds="5661.35" traveltime="12.08" overlapTraveltime="12.57" density="0.41" overlapDensity="0.43" laneDensity="0.21" occupancy="0.11" waitingTime="28.00" timeLoss="527.04" speed="12.62" speedRelative="0.91" departed="13" arrived="45" entered="466" left="434" laneChangedFrom="94" laneChangedTo="94" flow="18.80"/>
        <edge id="--30244#4" sampledSeconds="6396.73" traveltime="13.27" overlapTraveltime="13.83" density="0.50" overlapDensity="0.52" laneDensity="0.25" occupancy="0.16" waitingTime="16.00" timeLoss="771.79" speed="10.84" speedRelative="0.78" departed="36" arrived="40" entered="469" left="465" laneChangedFrom="168" laneChangedTo="168" flow="19.37"/>
        <edge id="--30246" sampledSeconds="491.71" traveltime="17.25" overlapTraveltime="17.89" density="0.04" overlapDensity="0.04" laneDensity="0.04" occupancy="0.02" waitingTime="12.00" timeLoss="211.84" speed="7.85" speedRelative="0.56" departed="0" arrived="60" entered="60" left="0" laneChangedFrom="0" laneChangedTo="0" flow="1.19"/>
        <edge id="--30248" sampledSeconds="737.28" traveltime="7.73" overlapTraveltime="8.21" density="0.09" overlapDensity="0.09" laneDensity="0.09" occupancy="0.04" waitingTime="3.00" timeLoss="112.67" speed="11.72" speedRelative="0.84" departed="7" arrived="13" entered="93" left="87" laneChangedFrom="0" laneChangedTo="0" flow="3.75"/>
        <edge id="--30250" sampledSeconds="1293.74" traveltime="8.64" overlapTraveltime="9.40" density="0.18" overlapDensity="0.20" laneDensity="0.18" occupancy="0.09" waitingTime="148.00" timeLoss="501.45" speed="8.51" speedRelative="0.61" departed="8" arrived="21" entered="146" left="133" laneChangedFrom="0" laneChangedTo="0" flow="5.75"/>
        <edge id="--30252" sampledSeconds="1584.84" traveltime="14.39" overlapTraveltime="15.19" density="0.13" overlapDensity="0.14" laneDensity="0.13" occupancy="0.07" waitingTime="30.00" timeLoss="534.69" speed="9.08" speedRelative="0.65" departed="39" arrived="54" entered="114" left="99" laneChangedFrom="0" laneChangedTo="0" flow="4.36"/>
        <edge id="--30254#0" sampledSeconds="59.69" traveltime="5.38" overlapTraveltime="7.58" density="0.06" overlapDensity="0.06" laneDensity="0.06" occupancy="0.02" waitingTime="2.00" timeLoss="49.67" speed="2.30" speedRelative="0.17" departed="0" arrived="21" entered="21" left="0" laneChangedFrom="0" laneChangedTo="0" flow="0.46"/>
        <edge id="--30254#1" sampledSeconds="105.80" traveltime="5.85" overlapTraveltime="6.62" density="0.04" overlapDensity="0.05" laneDensity="0.04" occupancy="0.02" waitingTime="0.00" timeLoss="72.37" speed="4.45" speedRelative="0.32" departed="27" arrived="0" entered="0" left="27" laneChangedFrom="0" laneChangedTo="0" flow="0.57"/>
        <edge id="--30256#0" sampledSeconds="181125.20" traveltime="52.30" overlapTraveltime="53.43" density="13.16" overlapDensity="13.44" laneDensity="4.39" occupancy="2.30" waitingTime="120690.00" timeLoss="141371.79" speed="3.02" speedRelative="0.22" departed="33" arrived="10" entered="3380" left="3403" laneChangedFrom="2881" laneChangedTo="2881" flow="141.29"/>
        <edge id="--30256#1" sampledSeconds="167876.02" traveltime="50.01" overlapTraveltime="51.11" density="5.31" overlapDensity="5.43" laneDensity="1.77" occupancy="0.90" waitingTime="58649.00" timeLoss="80641.32" speed="7.10" speedRelative="0.51" departed="115" arrived="40" entered="3250" left="3322" laneChangedFrom="3945" laneChangedTo="3945" teleported="2" flow="136.87"/>
        <edge id="--30256#2" sampledSeconds="77896.83" traveltime="23.09" overlapTraveltime="23.97" density="8.94" overlapDensity="9.28" laneDensity="2.98" occupancy="1.51" waitingTime="41970.00" timeLoss="53594.38" speed="4.26" speedRelative="0.31" departed="40" arrived="15" entered="3234" left="3257" laneChangedFrom="1312" laneChangedTo="1312" flow="135.44"/>
        <edge id="--30256#3" sampledSeconds="28125.28" traveltime="8.58" overlapTraveltime="8.99" density="3.15" overlapDensity="3.30" laneDensity="1.05" occupancy="0.52" waitingTime="12.00" timeLoss="4327.47" speed="11.54" speedRelative="0.83" departed="70" arrived="6" entered="3098" left="3162" laneChangedFrom="1113" laneChangedTo="1113" flow="130.31"/>
        <edge id="--30258" sampledSeconds="92.65" traveltime="13.50" overlapTraveltime="13.96" density="0.02" overlapDensity="0.02" laneDensity="0.02" occupancy="0.01" waitingTime="20.00" timeLoss="68.36" speed="3.82" speedRelative="0.28" departed="13" arrived="0" entered="0" left="13" laneChangedFrom="0" laneChangedTo="0" flow="0.25"/>
        <edge id="--30260" sampledSeconds="71531.74" traveltime="40.32" overlapTraveltime="41.63" density="1.33" overlapDensity="1.38" laneDensity="0.67" occupancy="0.34" waitingTime="2395.00" timeLoss="8236.85" speed="14.57" speedRelative="0.87" departed="146" arrived="152" entered="1719" left="1713" laneChangedFrom="351" laneChangedTo="351" flow="71.60"/>
        <edge id="--30262#0" sampledSeconds="3160.36" traveltime="14.55" overlapTraveltime="15.29" density="0.22" overlapDensity="0.24" laneDensity="0.22" occupancy="0.11" waitingTime="148.00" timeLoss="745.56" speed="10.46" speedRelative="0.75" departed="12" arrived="23" entered="211" left="200" laneChangedFrom="0" laneChangedTo="0" flow="8.62"/>
        <edge id="--30262#1" sampledSeconds="1557.05" traveltime="10.11" overlapTraveltime="10.50" density="0.15" overlapDensity="0.15" laneDensity="0.15" occupancy="0.07" waitingTime="3.00" timeLoss="216.64" speed="11.77" speedRelative="0.85" departed="19" arrived="20" entered="147" left="146" laneChangedFrom="0" laneChangedTo="0" flow="6.18"/>
        <edge id="--30262#2" sampledSeconds="1201.36" traveltime="11.62" overlapTraveltime="12.29" density="0.11" overlapDensity="0.11" laneDensity="0.11" occupancy="0.05" waitingTime="9.00" timeLoss="299.80" speed="10.37" speedRelative="0.75" departed="15" arrived="19" entered="100" left="96" laneChangedFrom="0" laneChangedTo="0" flow="4.08"/>
        <edge id="--30264#0" sampledSeconds="285.33" traveltime="17.70" overlapTraveltime="18.17" density="0.02" overlapDensity="0.02" laneDensity="0.02" occupancy="0.01" waitingTime="0.00" timeLoss="72.53" speed="10.16" speedRelative="0.73" departed="23" arrived="0" entered="4" left="27" laneChangedFrom="0" laneChangedTo="0" flow="0.64"/>
        <edge id="--30264#1" sampledSeconds="161.35" traveltime="5.94" overlapTraveltime="7.46" density="0.11" overlapDensity="0.11" laneDensity="0.11" occupancy="0.05" waitingTime="9.00" timeLoss="127.73" speed="2.90" speedRelative="0.21" departed="0" arrived="46" entered="50" left="4" laneChangedFrom="0" laneChangedTo="0" flow="1.11"/>
        <edge id="--30266" sampledSeconds="5685.18" traveltime="27.17" overlapTraveltime="28.11" density="0.49" overlapDensity="0.51" laneDensity="0.49" occupancy="0.25" waitingTime="2900.00" timeLoss="3733.24" speed="4.76" speedRelative="0.34" departed="18" arrived="29" entered="206" left="195" laneChangedFrom="0" laneChangedTo="0" flow="8.44"/>
        <edge id="--30270#0" sampledSeconds="814.06" traveltime="22.15" overlapTraveltime="22.68" density="0.04" overlapDensity="0.04" laneDensity="0.04" occupancy="0.02" waitingTime="15.00" timeLoss="243.79" speed="9.71" speedRelative="0.70" departed="0" arrived="73" entered="73" left="0" laneChangedFrom="0" laneChangedTo="0" flow="1.53"/>
        <edge id="--30270#1" sampledSeconds="708.55" traveltime="2.94" overlapTraveltime="3.43" density="0.20" overlapDensity="0.24" laneDensity="0.20" occupancy="0.12" waitingTime="1.00" timeLoss="95.10" speed="11.95" speedRelative="0.86" departed="10" arrived="9" entered="207" left="208" laneChangedFrom="0" laneChangedTo="0" flow="8.63"/>
        <edge id="--30272" sampledSeconds="1330.75" traveltime="12.81" overlapTraveltime="13.47" density="0.11" overlapDensity="0.11" laneDensity="0.11" occupancy="0.05" waitingTime="4.00" timeLoss="287.94" speed="10.72" speedRelative="0.77" departed="1" arrived="31" entered="114" left="84" laneChangedFrom="0" laneChangedTo="0" flow="4.14"/>
        <edge id="--30274" sampledSeconds="107.93" traveltime="2.81" overlapTraveltime="3.80" density="0.05" overlapDensity="0.07" laneDensity="0.05" occupancy="0.03" waitingTime="12.00" timeLoss="61.22" speed="5.78" speedRelative="0.42" departed="7" arrived="0" entered="24" left="31" laneChangedFrom="0" laneChangedTo="0" flow="1.15"/>
        <edge id="--30278" sampledSeconds="551.34" traveltime="3.07" overlapTraveltime="4.03" density="0.76" overlapDensity="0.98" laneDensity="0.38" occupancy="0.19" waitingTime="197.00" timeLoss="439.89" speed="2.85" speedRelative="0.21" departed="5" arrived="14" entered="144" left="135" laneChangedFrom="125" laneChangedTo="125" flow="5.79"/>
        <edge id="--30280" sampledSeconds="16627.54" traveltime="17.01" overlapTraveltime="17.68" density="0.95" overlapDensity="0.99" laneDensity="0.95" occupancy="0.48" waitingTime="64.00" timeLoss="2617.59" speed="11.26" speedRelative="0.81" departed="16" arrived="32" entered="947" left="931" laneChangedFrom="0" laneChangedTo="0" flow="39.19"/>
        <edge id="--30282" sampledSeconds="3896.43" traveltime="31.27" overlapTraveltime="32.05" density="0.13" overlapDensity="0.13" laneDensity="0.13" occupancy="0.07" waitingTime="63.00" timeLoss="784.74" speed="10.94" speedRelative="0.79" departed="42" arrived="54" entered="126" left="114" laneChangedFrom="0" laneChangedTo="0" flow="5.07"/>
        <edge id="--30284#0" sampledSeconds="212.96" traveltime="11.64" overlapTraveltime="12.48" density="0.04" overlapDensity="0.04" laneDensity="0.04" occupancy="0.02" waitingTime="9.00" timeLoss="120.81" speed="6.04" speedRelative="0.44" departed="0" arrived="40" entered="40" left="0" laneChangedFrom="0" laneChangedTo="0" flow="0.76"/>
        <edge id="--30286#0" sampledSeconds="361.45" traveltime="13.51" overlapTraveltime="14.27" density="0.05" overlapDensity="0.05" laneDensity="0.05" occupancy="0.02" waitingTime="7.00" timeLoss="194.37" speed="6.38" speedRelative="0.46" departed="0" arrived="59" entered="59" left="0" laneChangedFrom="0" laneChangedTo="0" flow="1.11"/>
        <edge id="--30286#1" sampledSeconds="1175.05" traveltime="8.15" overlapTraveltime="8.94" density="0.14" overlapDensity="0.15" laneDensity="0.14" occupancy="0.07" waitingTime="1.57" timeLoss="248.42" speed="10.73" speedRelative="0.77" departed="10" arrived="11" entered="130" left="129" laneChangedFrom="0" laneChangedTo="0" flow="5.48"/>
        <edge id="--30286#2" sampledSeconds="1078.76" traveltime="9.80" overlapTraveltime="10.22" density="0.11" overlapDensity="0.11" laneDensity="0.11" occupancy="0.05" waitingTime="5.00" timeLoss="170.65" speed="11.47" speedRelative="0.83" departed="18" arrived="20" entered="106" left="104" laneChangedFrom="0" laneChangedTo="0" flow="4.40"/>
        <edge id="--30286#3" sampledSeconds="582.34" traveltime="3.90" overlapTraveltime="4.32" density="0.13" overlapDensity="0.15" laneDensity="0.13" occupancy="0.07" waitingTime="0.00" timeLoss="89.04" speed="11.56" speedRelative="0.83" departed="10" arrived="10" entered="135" left="135" laneChangedFrom="0" laneChangedTo="0" flow="5.61"/>
        <edge id="--30286#4" sampledSeconds="1064.14" traveltime="5.66" overlapTraveltime="6.15" density="0.18" overlapDensity="0.20" laneDensity="0.18" occupancy="0.09" waitingTime="4.00" timeLoss="209.23" speed="10.99" speedRelative="0.79" departed="5" arrived="16" entered="180" left="169" laneChangedFrom="0" laneChangedTo="0" flow="7.23"/>
        <edge id="--30288#0" sampledSeconds="543.49" traveltime="7.50" overlapTraveltime="8.21" density="0.09" overlapDensity="0.10" laneDensity="0.09" occupancy="0.05" waitingTime="4.00" timeLoss="229.78" speed="8.01" speedRelative="0.58" departed="27" arrived="19" entered="60" left="68" laneChangedFrom="0" laneChangedTo="0" flow="2.75"/>
        <edge id="--30288#1" sampledSeconds="398.42" traveltime="5.75" overlapTraveltime="6.16" density="0.07" overlapDensity="0.07" laneDensity="0.07" occupancy="0.03" waitingTime="2.00" timeLoss="84.23" speed="10.93" speedRelative="0.79" departed="4" arrived="16" entered="72" left="60" laneChangedFrom="0" laneChangedTo="0" flow="2.71"/>
        <edge id="--30290" sampledSeconds="1535.72" traveltime="14.52" overlapTraveltime="15.25" density="0.11" overlapDensity="0.12" laneDensity="0.11" occupancy="0.06" waitingTime="1.00" timeLoss="394.95" speed="10.21" speedRelative="0.73" departed="39" arrived="7" entered="86" left="118" laneChangedFrom="0" laneChangedTo="0" flow="4.17"/>
        <edge id="--30294#0" sampledSeconds="13392.35" traveltime="30.26" overlapTraveltime="31.59" density="1.26" overlapDensity="1.32" laneDensity="1.26" occupancy="0.72" waitingTime="6970.00" timeLoss="9628.44" speed="3.89" speedRelative="0.28" departed="23" arrived="32" entered="427" left="418" laneChangedFrom="0" laneChangedTo="0" flow="17.61"/>
        <edge id="--30294#1" sampledSeconds="4328.02" traveltime="14.14" overlapTraveltime="14.98" density="0.30" overlapDensity="0.31" laneDensity="0.30" occupancy="0.19" waitingTime="57.00" timeLoss="833.75" speed="11.07" speedRelative="0.80" departed="27" arrived="28" entered="288" left="286" laneChangedFrom="0" laneChangedTo="0" flow="12.04"/>
        <edge id="--30296" sampledSeconds="1281.43" traveltime="28.55" overlapTraveltime="29.05" density="0.05" overlapDensity="0.05" laneDensity="0.05" occupancy="0.03" waitingTime="12.00" timeLoss="347.66" speed="10.04" speedRelative="0.72" departed="0" arrived="89" entered="89" left="0" laneChangedFrom="0" laneChangedTo="0" flow="1.87"/>
        <edge id="--30304#0" sampledSeconds="6744.95" traveltime="75.41" overlapTraveltime="75.80" density="0.09" overlapDensity="0.09" laneDensity="0.09" occupancy="0.04" waitingTime="16.00" timeLoss="837.54" speed="12.01" speedRelative="0.86" departed="80" arrived="98" entered="98" left="80" laneChangedFrom="0" laneChangedTo="0" flow="3.71"/>
        <edge id="--30304#1" sampledSeconds="944.87" traveltime="6.43" overlapTraveltime="6.98" density="0.14" overlapDensity="0.15" laneDensity="0.14" occupancy="0.07" waitingTime="0.00" timeLoss="183.31" speed="10.96" speedRelative="0.79" departed="19" arrived="15" entered="133" left="137" laneChangedFrom="0" laneChangedTo="0" flow="5.63"/>
        <edge id="--30304#2" sampledSeconds="1187.42" traveltime="6.21" overlapTraveltime="6.71" density="0.18" overlapDensity="0.19" laneDensity="0.18" occupancy="0.09" waitingTime="3.00" timeLoss="202.05" speed="11.27" speedRelative="0.81" departed="15" arrived="20" entered="180" left="175" laneChangedFrom="0" laneChangedTo="0" flow="7.38"/>
        <edge id="--30306#0" sampledSeconds="955.43" traveltime="25.52" overlapTraveltime="26.07" density="0.05" overlapDensity="0.05" laneDensity="0.05" occupancy="0.02" waitingTime="10.00" timeLoss="281.31" speed="9.59" speedRelative="0.69" departed="0" arrived="78" entered="78" left="0" laneChangedFrom="0" laneChangedTo="0" flow="1.56"/>
        <edge id="--30306#1" sampledSeconds="1496.71" traveltime="10.89" overlapTraveltime="11.42" density="0.13" overlapDensity="0.14" laneDensity="0.13" occupancy="0.07" waitingTime="5.00" timeLoss="219.77" speed="11.67" speedRelative="0.84" departed="0" arrived="33" entered="148" left="115" laneChangedFrom="0" laneChangedTo="0" flow="5.49"/>
        <edge id="--30306#2" sampledSeconds="3382.41" traveltime="7.72" overlapTraveltime="8.38" density="0.55" overlapDensity="0.58" laneDensity="0.55" occupancy="0.40" waitingTime="48.00" timeLoss="560.84" speed="8.90" speedRelative="0.64" departed="33" arrived="21" entered="392" left="404" laneChangedFrom="0" laneChangedTo="0" flow="17.23"/>
        <edge id="--30306#3" sampledSeconds="1750.61" traveltime="3.90" overlapTraveltime="4.31" density="0.39" overlapDensity="0.43" laneDensity="0.39" occupancy="0.20" waitingTime="3.00" timeLoss="201.05" speed="12.16" speedRelative="0.88" departed="0" arrived="30" entered="424" left="394" laneChangedFrom="0" laneChangedTo="0" flow="17.00"/>
        <edge id="--30306#4" sampledSeconds="2359.45" traveltime="4.49" overlapTraveltime="4.89" density="0.46" overlapDensity="0.50" laneDensity="0.46" occupancy="0.23" waitingTime="6.00" timeLoss="247.13" speed="12.29" speedRelative="0.89" departed="0" arrived="31" entered="498" left="467" laneChangedFrom="0" laneChangedTo="0" flow="20.15"/>
        <edge id="--30306#5" sampledSeconds="8468.85" traveltime="13.60" overlapTraveltime="14.01" density="0.56" overlapDensity="0.57" laneDensity="0.56" occupancy="0.28" waitingTime="5.00" timeLoss="716.48" speed="12.59" speedRelative="0.91" departed="28" arrived="35" entered="609" left="602" laneChangedFrom="0" laneChangedTo="0" flow="25.20"/>
        <edge id="--30306#6" sampledSeconds="2663.70" traveltime="2.55" overlapTraveltime="3.10" density="0.94" overlapDensity="1.15" laneDensity="0.94" occupancy="0.48" waitingTime="1.00" timeLoss="656.07" speed="10.34" speedRelative="0.74" departed="4" arrived="7" entered="864" left="861" laneChangedFrom="0" laneChangedTo="0" flow="35.88"/>
        <edge id="--30314#0" sampledSeconds="29991.92" traveltime="16.31" overlapTraveltime="16.74" density="1.36" overlapDensity="1.39" laneDensity="0.45" occupancy="0.26" waitingTime="28.00" timeLoss="4619.24" speed="15.21" speedRelative="0.78" departed="50" arrived="22" entered="1778" left="1806" laneChangedFrom="804" laneChangedTo="804" flow="74.76"/>
        <edge id="--30314#1" sampledSeconds="49901.75" traveltime="53.05" overlapTraveltime="53.83" density="1.91" overlapDensity="1.97" laneDensity="0.64" occupancy="0.33" waitingTime="20616.00" timeLoss="35489.71" speed="5.53" speedRelative="0.28" departed="1767" arrived="7" entered="0" left="1760" laneChangedFrom="671" laneChangedTo="671" flow="38.03"/>
        <edge id="--30316" sampledSeconds="22954.52" traveltime="115.63" overlapTraveltime="116.13" density="0.19" overlapDensity="0.19" laneDensity="0.19" occupancy="0.10" waitingTime="521.00" timeLoss="2983.39" speed="11.81" speedRelative="0.85" departed="19" arrived="356" entered="371" left="34" laneChangedFrom="0" laneChangedTo="0" flow="8.26"/>
        <edge id="--30318" sampledSeconds="3502.63" traveltime="8.33" overlapTraveltime="9.01" density="0.43" overlapDensity="0.47" laneDensity="0.43" occupancy="0.22" waitingTime="4.00" timeLoss="928.69" speed="10.16" speedRelative="0.73" departed="0" arrived="31" entered="404" left="373" laneChangedFrom="0" laneChangedTo="0" flow="16.24"/>
        <edge id="--30320" sampledSeconds="1192.15" traveltime="23.48" overlapTraveltime="24.03" density="0.06" overlapDensity="0.06" laneDensity="0.06" occupancy="0.03" waitingTime="24.00" timeLoss="375.18" speed="9.30" speedRelative="0.67" departed="0" arrived="105" entered="105" left="0" laneChangedFrom="0" laneChangedTo="0" flow="2.12"/>
        <edge id="--30328#0" sampledSeconds="2683.18" traveltime="12.95" overlapTraveltime="13.73" density="0.21" overlapDensity="0.22" laneDensity="0.21" occupancy="0.11" waitingTime="9.00" timeLoss="610.38" speed="10.66" speedRelative="0.77" departed="46" arrived="73" entered="208" left="181" laneChangedFrom="0" laneChangedTo="0" flow="8.16"/>
        <edge id="--30328#1" sampledSeconds="2081.26" traveltime="12.27" overlapTraveltime="12.69" density="0.18" overlapDensity="0.18" laneDensity="0.18" occupancy="0.09" waitingTime="15.00" timeLoss="452.77" speed="10.77" speedRelative="0.78" departed="54" arrived="74" entered="172" left="152" laneChangedFrom="0" laneChangedTo="0" flow="6.85"/>
        <edge id="--30328#2" sampledSeconds="641.51" traveltime="2.53" overlapTraveltime="2.94" density="0.27" overlapDensity="0.31" laneDensity="0.27" occupancy="0.13" waitingTime="14.00" timeLoss="181.84" speed="9.82" speedRelative="0.71" departed="2" arrived="58" entered="251" left="195" laneChangedFrom="0" laneChangedTo="0" flow="9.30"/>
        <edge id="--30328#3" sampledSeconds="1451.32" traveltime="5.03" overlapTraveltime="5.45" density="0.28" overlapDensity="0.30" laneDensity="0.28" occupancy="0.14" waitingTime="7.00" timeLoss="284.56" speed="11.03" speedRelative="0.79" departed="2" arrived="37" entered="286" left="251" laneChangedFrom="0" laneChangedTo="0" flow="11.14"/>
        <edge id="--30330" sampledSeconds="202.32" traveltime="11.12" overlapTraveltime="11.86" density="0.03" overlapDensity="0.04" laneDensity="0.03" occupancy="0.02" waitingTime="0.00" timeLoss="114.19" speed="5.79" speedRelative="0.42" departed="35" arrived="0" entered="0" left="35" laneChangedFrom="0" laneChangedTo="0" flow="0.65"/>
        <edge id="--30334#0" sampledSeconds="2846.90" traveltime="21.06" overlapTraveltime="21.89" density="0.76" overlapDensity="0.79" laneDensity="0.76" occupancy="0.39" waitingTime="1905.00" timeLoss="2408.59" speed="2.13" speedRelative="0.15" departed="29" arrived="0" entered="112" left="141" laneChangedFrom="0" laneChangedTo="0" flow="5.37"/>
        <edge id="--30334#1" sampledSeconds="2265.36" traveltime="24.41" overlapTraveltime="25.20" density="0.09" overlapDensity="0.10" laneDensity="0.09" occupancy="0.05" waitingTime="7.00" timeLoss="442.53" speed="11.11" speedRelative="0.80" departed="33" arrived="46" entered="101" left="88" laneChangedFrom="0" laneChangedTo="0" flow="3.75"/>
        <edge id="--30334#2" sampledSeconds="292.17" traveltime="20.80" overlapTraveltime="21.16" density="0.02" overlapDensity="0.02" laneDensity="0.02" occupancy="0.01" waitingTime="0.00" timeLoss="87.53" speed="9.72" speedRelative="0.70" departed="29" arrived="0" entered="0" left="29" laneChangedFrom="0" laneChangedTo="0" flow="0.56"/>
        <edge id="--30336#0" sampledSeconds="17598.32" traveltime="24.54" overlapTraveltime="24.94" density="0.57" overlapDensity="0.58" laneDensity="0.19" occupancy="0.10" waitingTime="26.00" timeLoss="2132.39" speed="14.42" speedRelative="0.86" departed="77" arrived="127" entered="734" left="684" laneChangedFrom="833" laneChangedTo="833" flow="29.42"/>
        <edge id="--30336#1" sampledSeconds="51996.67" traveltime="69.89" overlapTraveltime="70.96" density="0.72" overlapDensity="0.73" laneDensity="0.24" occupancy="0.12" waitingTime="9259.00" timeLoss="15118.72" speed="11.72" speedRelative="0.70" departed="139" arrived="233" entered="787" left="693" laneChangedFrom="1125" laneChangedTo="1125" flow="30.54"/>
        <edge id="--30336#2" sampledSeconds="50753.55" traveltime="24.09" overlapTraveltime="24.75" density="1.86" overlapDensity="1.91" laneDensity="0.62" occupancy="0.31" waitingTime="10484.00" timeLoss="17280.59" speed="12.63" speedRelative="0.65" departed="53" arrived="105" entered="2075" left="2022" laneChangedFrom="560" laneChangedTo="560" flow="85.45"/>
        <edge id="--30344" sampledSeconds="327.54" traveltime="1.73" overlapTraveltime="2.17" density="0.16" overlapDensity="0.20" laneDensity="0.16" occupancy="0.08" waitingTime="0.00" timeLoss="62.96" speed="11.01" speedRelative="0.79" departed="4" arrived="9" entered="153" left="148" laneChangedFrom="0" laneChangedTo="0" flow="6.34"/>
        <edge id="--30346#0" sampledSeconds="5081.76" traveltime="22.65" overlapTraveltime="23.57" density="0.47" overlapDensity="0.49" laneDensity="0.47" occupancy="0.29" waitingTime="2409.00" timeLoss="3120.02" speed="5.38" speedRelative="0.39" departed="21" arrived="16" entered="214" left="219" laneChangedFrom="0" laneChangedTo="0" flow="8.98"/>
        <edge id="--30346#1" sampledSeconds="1146.14" traveltime="17.10" overlapTraveltime="17.77" density="0.07" overlapDensity="0.08" laneDensity="0.07" occupancy="0.04" waitingTime="8.00" timeLoss="326.76" speed="9.95" speedRelative="0.72" departed="29" arrived="36" entered="65" left="58" laneChangedFrom="0" laneChangedTo="0" flow="2.70"/>
        <edge id="--30348#0" sampledSeconds="84030.71" traveltime="29.93" overlapTraveltime="30.65" density="7.10" overlapDensity="7.27" laneDensity="3.55" occupancy="1.81" waitingTime="42199.00" timeLoss="56437.10" speed="4.53" speedRelative="0.33" departed="76" arrived="4" entered="2700" left="2772" laneChangedFrom="68" laneChangedTo="68" flow="114.19"/>
        <edge id="--30348#1" sampledSeconds="8680.02" traveltime="2.80" overlapTraveltime="3.23" density="2.72" overlapDensity="3.13" laneDensity="1.36" occupancy="0.69" waitingTime="165.00" timeLoss="1421.61" speed="11.53" speedRelative="0.83" departed="15" arrived="12" entered="2692" left="2695" laneChangedFrom="300" laneChangedTo="300" flow="112.29"/>
        <edge id="--30348#2" sampledSeconds="27133.47" traveltime="9.39" overlapTraveltime="9.95" density="2.67" overlapDensity="2.82" laneDensity="1.33" occupancy="0.72" waitingTime="191.05" timeLoss="3412.10" speed="11.73" speedRelative="0.84" departed="32" arrived="28" entered="2732" left="2736" laneChangedFrom="412" laneChangedTo="412" flow="113.94"/>
        <edge id="--30348#3" sampledSeconds="13319.00" traveltime="4.82" overlapTraveltime="5.29" density="2.61" overlapDensity="2.84" laneDensity="1.31" occupancy="0.76" waitingTime="20.00" timeLoss="1392.36" speed="11.36" speedRelative="0.82" departed="16" arrived="15" entered="2540" left="2541" laneChangedFrom="123" laneChangedTo="123" flow="106.01"/>
        <edge id="--30348#4" sampledSeconds="24868.35" traveltime="9.50" overlapTraveltime="9.93" density="2.40" overlapDensity="2.50" laneDensity="1.20" occupancy="0.61" waitingTime="18.00" timeLoss="3064.31" speed="12.10" speedRelative="0.87" departed="19" arrived="33" entered="2516" left="2502" laneChangedFrom="225" laneChangedTo="225" flow="104.38"/>
        <edge id="--30348#5" sampledSeconds="84132.23" traveltime="32.67" overlapTraveltime="33.65" density="5.98" overlapDensity="6.16" laneDensity="2.99" occupancy="1.60" waitingTime="40939.00" timeLoss="53578.45" speed="4.86" speedRelative="0.35" departed="54" arrived="24" entered="2482" left="2512" laneChangedFrom="702" laneChangedTo="702" flow="104.26"/>
        <edge id="--30350" sampledSeconds="118.45" traveltime="6.33" overlapTraveltime="6.78" density="0.04" overlapDensity="0.05" laneDensity="0.04" occupancy="0.02" waitingTime="0.00" timeLoss="74.71" speed="4.96" speedRelative="0.36" departed="30" arrived="0" entered="0" left="30" laneChangedFrom="0" laneChangedTo="0" flow="0.64"/>
        <edge id="--30352" sampledSeconds="1406.15" traveltime="12.54" overlapTraveltime="13.25" density="0.13" overlapDensity="0.14" laneDensity="0.13" occupancy="0.07" waitingTime="13.00" timeLoss="426.98" speed="9.43" speedRelative="0.68" departed="35" arrived="41" entered="111" left="105" laneChangedFrom="0" laneChangedTo="0" flow="4.42"/>
        <edge id="--30354" sampledSeconds="6497.39" traveltime="14.40" overlapTraveltime="15.32" density="0.57" overlapDensity="0.61" laneDensity="0.57" occupancy="0.29" waitingTime="1126.00" timeLoss="2587.44" speed="8.35" speedRelative="0.60" departed="31" arrived="25" entered="420" left="426" laneChangedFrom="0" laneChangedTo="0" flow="17.67"/>