<?xml version="1.0" encoding="UTF-8"?>

<!-- generated on 2026-04-21T22:43:33.820098+01:00 by Eclipse SUMO sumo 1.26.0
<sumoConfiguration xmlns:xsi="http://www.w3.org/2001/XMLSchema-instance" xsi:noNamespaceSchemaLocation="http://sumo.dlr.de/xsd/sumoConfiguration.xsd">

    <input>
        <net-file value="lust.net.xml"/>
        <route-files value="buslines.rou.xml,DUARoutes/local.0.rou.xml,DUARoutes/local.1.rou.xml,DUARoutes/local.2.rou.xml,transit.rou.xml"/>
        <additional-files value="vtypes.add.xml,busstops.add.xml,e1detectors.add.xml,lust.poly.xml,tll.static.xml"/>
    </input>

    <output>
        <summary-output value="dua.static.summary.xml"/>
        <tripinfo-output value="dua.static.tripinfo.xml"/>
        <edgedata-output value="dua.static.edgedata.xml"/>
    </output>

    <time>
        <begin value="0"/>
        <end value="21600"/>
        <step-length value="1"/>
    </time>

    <processing>
        <ignore-junction-blocker value="20"/>
        <time-to-teleport value="600"/>
        <max-depart-delay value="600"/>
    </processing>

    <routing>
        <routing-algorithm value="dijkstra"/>
        <device.rerouting.probability value="0.70"/>
        <device.rerouting.period value="300"/>
        <device.rerouting.pre-period value="300"/>
    </routing>

    <report>
        <verbose value="true"/>
        <log value="dua.static.log"/>
    </report>

</sumoConfiguration>
-->

<meandata xmlns:xsi="http://www.w3.org/2001/XMLSchema-instance" xsi:noNamespaceSchemaLocation="http://sumo.dlr.de/xsd/meandata_file.xsd">
    <interval begin="0.00" end="21600.00" id="DEFAULT_EDGEDATA">
        <edge id="--30244#0" sampledSeconds="880.18" traveltime="70.63" overlapTraveltime="71.97" density="0.06" overlapDensity="0.06" laneDensity="0.03" occupancy="0.02" waitingTime="218.00" timeLoss="294.85" speed="9.02" speedRelative="0.65" departed="1" arrived="2" entered="13" left="12" laneChangedFrom="5" laneChangedTo="5" flow="2.04"/>
        <edge id="--30244#1" sampledSeconds="141.00" traveltime="11.95" overlapTraveltime="12.61" density="0.04" overlapDensity="0.04" laneDensity="0.02" occupancy="0.02" waitingTime="0.00" timeLoss="16.70" speed="12.16" speedRelative="0.88" departed="1" arrived="1" entered="11" left="11" laneChangedFrom="3" laneChangedTo="3" flow="1.86"/>
        <edge id="--30244#2" sampledSeconds="209.66" traveltime="21.17" overlapTraveltime="22.24" density="0.07" overlapDensity="0.07" laneDensity="0.04" occupancy="0.04" waitingTime="2.00" timeLoss="33.04" speed="6.31" speedRelative="0.45" departed="0" arrived="1" entered="10" left="9" laneChangedFrom="0" laneChangedTo="0" flow="1.60"/>
        <edge id="--30244#3" sampledSeconds="151.33" traveltime="11.97" overlapTraveltime="12.56" density="0.04" overlapDensity="0.05" laneDensity="0.02" occupancy="0.02" waitingTime="0.00" timeLoss="13.16" speed="12.77" speedRelative="0.92" departed="0" arrived="2" entered="13" left="11" laneChangedFrom="3" laneChangedTo="3" flow="2.01"/>
        <edge id="--30244#4" sampledSeconds="259.92" traveltime="19.25" overlapTraveltime="20.16" density="0.08" overlapDensity="0.08" laneDensity="0.04" occupancy="0.04" waitingTime="2.00" timeLoss="40.32" speed="7.58" speedRelative="0.55" departed="0" arrived="2" entered="14" left="12" laneChangedFrom="2" laneChangedTo="2" flow="2.18"/>
        <edge id="--30246" sampledSeconds="13.98" traveltime="19.36" overlapTraveltime="20.13" density="0.00" overlapDensity="0.00" laneDensity="0.00" occupancy="0.00" waitingTime="1.00" timeLoss="7.31" speed="6.99" speedRelative="0.50" departed="0" arrived="2" entered="2" left="0" laneChangedFrom="0" laneChangedTo="0" flow="0.12"/>
        <edge id="--30248" sampledSeconds="21.12" traveltime="8.32" overlapTraveltime="8.74" density="0.01" overlapDensity="0.01" laneDensity="0.01" occupancy="0.00" waitingTime="0.00" timeLoss="4.95" speed="10.98" speedRelative="0.79" departed="1" arrived="0" entered="2" left="3" laneChangedFrom="0" laneChangedTo="0" flow="0.40"/>
        <edge id="--30250" sampledSeconds="14.86" traveltime="6.57" overlapTraveltime="7.43" density="0.01" overlapDensity="0.01" laneDensity="0.01" occupancy="0.00" waitingTime="0.00" timeLoss="3.81" speed="10.74" speedRelative="0.77" departed="0" arrived="0" entered="2" left="2" laneChangedFrom="0" laneChangedTo="0" flow="0.33"/>
        <edge id="--30252" sampledSeconds="13.77" traveltime="14.91" overlapTraveltime="15.46" density="0.00" overlapDensity="0.00" laneDensity="0.00" occupancy="0.00" waitingTime="0.00" timeLoss="3.57" speed="8.89" speedRelative="0.64" departed="1" arrived="0" entered="0" left="1" laneChangedFrom="0" laneChangedTo="0" flow="0.15"/>
        <edge id="--30254#0" sampledSeconds="5.14" traveltime="5.56" overlapTraveltime="7.80" density="0.02" overlapDensity="0.02" laneDensity="0.02" occupancy="0.01" waitingTime="0.00" timeLoss="4.24" speed="2.23" speedRelative="0.16" departed="0" arrived="1" entered="1" left="0" laneChangedFrom="0" laneChangedTo="0" flow="0.15"/>
        <edge id="--30254#1" sampledSeconds="7.61" traveltime="7.06" overlapTraveltime="7.31" density="0.01" overlapDensity="0.01" laneDensity="0.01" occupancy="0.01" waitingTime="0.00" timeLoss="5.47" speed="4.05" speedRelative="0.29" departed="3" arrived="0" entered="0" left="3" laneChangedFrom="0" laneChangedTo="0" flow="0.10"/>
        <edge id="--30256#0" sampledSeconds="12934.78" traveltime="44.90" overlapTraveltime="46.09" density="3.74" overlapDensity="3.84" laneDensity="1.25" occupancy="0.70" waitingTime="8348.00" timeLoss="9623.47" speed="3.51" speedRelative="0.25" departed="0" arrived="1" entered="282" left="279" laneChangedFrom="217" laneChangedTo="217" flow="46.83"/>
        <edge id="--30256#1" sampledSeconds="10602.06" traveltime="46.65" overlapTraveltime="47.65" density="1.34" overlapDensity="1.37" laneDensity="0.45" occupancy="0.23" waitingTime="3628.00" timeLoss="4698.18" speed="7.62" speedRelative="0.55" departed="0" arrived="1" entered="223" left="217" laneChangedFrom="225" laneChangedTo="225" flow="37.10"/>
        <edge id="--30256#2" sampledSeconds="5076.20" traveltime="21.27" overlapTraveltime="22.20" density="2.32" overlapDensity="2.42" laneDensity="0.77" occupancy="0.40" waitingTime="2648.00" timeLoss="3366.93" speed="4.60" speedRelative="0.33" departed="0" arrived="2" entered="230" left="222" laneChangedFrom="65" laneChangedTo="65" flow="38.17"/>
        <edge id="--30256#3" sampledSeconds="2049.77" traveltime="8.60" overlapTraveltime="8.99" density="0.92" overlapDensity="0.96" laneDensity="0.31" occupancy="0.15" waitingTime="0.00" timeLoss="315.60" speed="11.55" speedRelative="0.83" departed="4" arrived="0" entered="226" left="229" laneChangedFrom="62" laneChangedTo="62" flow="38.01"/>
        <edge id="--30258" sampledSeconds="2.13" traveltime="17.91" overlapTraveltime="13.30" density="0.00" overlapDensity="0.00" laneDensity="0.00" occupancy="0.00" waitingTime="0.00" timeLoss="1.49" speed="4.09" speedRelative="0.29" departed="1" arrived="0" entered="0" left="1" laneChangedFrom="0" laneChangedTo="0" flow="0.01"/>
        <edge id="--30260" sampledSeconds="1316.59" traveltime="38.22" overlapTraveltime="38.62" density="0.10" overlapDensity="0.10" laneDensity="0.05" occupancy="0.02" waitingTime="2.00" timeLoss="77.37" speed="15.71" speedRelative="0.94" departed="1" arrived="4" entered="36" left="33" laneChangedFrom="2" laneChangedTo="2" flow="5.68"/>
        <edge id="--30262#0" sampledSeconds="175.87" traveltime="14.02" overlapTraveltime="14.86" density="0.05" overlapDensity="0.05" laneDensity="0.05" occupancy="0.03" waitingTime="2.00" timeLoss="34.55" speed="10.78" speedRelative="0.78" departed="2" arrived="0" entered="11" left="13" laneChangedFrom="0" laneChangedTo="0" flow="1.97"/>
        <edge id="--30262#1" sampledSeconds="49.66" traveltime="9.53" overlapTraveltime="9.93" density="0.02" overlapDensity="0.02" laneDensity="0.02" occupancy="0.01" waitingTime="0.00" timeLoss="2.62" speed="12.46" speedRelative="0.90" departed="0" arrived="0" entered="5" left="5" laneChangedFrom="0" laneChangedTo="0" flow="0.83"/>
        <edge id="--30262#2" sampledSeconds="11.97" traveltime="10.99" overlapTraveltime="11.97" density="0.00" overlapDensity="0.00" laneDensity="0.00" occupancy="0.00" waitingTime="0.00" timeLoss="2.24" speed="10.73" speedRelative="0.77" departed="0" arrived="0" entered="1" left="1" laneChangedFrom="0" laneChangedTo="0" flow="0.17"/>
        <edge id="--30264#1" sampledSeconds="3.03" traveltime="3.35" overlapTraveltime="4.80" density="0.01" overlapDensity="0.01" laneDensity="0.01" occupancy="0.01" waitingTime="0.00" timeLoss="2.02" speed="4.85" speedRelative="0.35" departed="0" arrived="1" entered="1" left="0" laneChangedFrom="0" laneChangedTo="0" flow="0.15"/>
        <edge id="--30266" sampledSeconds="139.39" traveltime="33.75" overlapTraveltime="34.88" density="0.05" overlapDensity="0.05" laneDensity="0.05" occupancy="0.02" waitingTime="85.00" timeLoss="100.11" speed="3.83" speedRelative="0.28" departed="0" arrived="0" entered="4" left="4" laneChangedFrom="0" laneChangedTo="0" flow="0.67"/>
        <edge id="--30270#0" sampledSeconds="17.21" traveltime="20.15" overlapTraveltime="20.57" density="0.00" overlapDensity="0.00" laneDensity="0.00" occupancy="0.00" waitingTime="0.00" timeLoss="4.27" speed="10.67" speedRelative="0.77" departed="0" arrived="2" entered="2" left="0" laneChangedFrom="0" laneChangedTo="0" flow="0.14"/>
        <edge id="--30270#1" sampledSeconds="31.96" traveltime="2.64" overlapTraveltime="3.23" density="0.04" overlapDensity="0.04" laneDensity="0.04" occupancy="0.03" waitingTime="0.00" timeLoss="2.78" speed="13.25" speedRelative="0.95" departed="0" arrived="0" entered="10" left="10" laneChangedFrom="0" laneChangedTo="0" flow="1.67"/>
        <edge id="--30272" sampledSeconds="2.38" traveltime="30.75" overlapTraveltime="31.86" density="0.00" overlapDensity="0.00" laneDensity="0.00" occupancy="0.00" waitingTime="0.00" timeLoss="1.67" speed="4.53" speedRelative="0.33" departed="0" arrived="1" entered="1" left="0" laneChangedFrom="0" laneChangedTo="0" flow="0.01"/>
        <edge id="--30274" sampledSeconds="3.26" traveltime="2.48" overlapTraveltime="3.26" density="0.01" overlapDensity="0.01" laneDensity="0.01" occupancy="0.00" waitingTime="0.00" timeLoss="1.49" speed="6.79" speedRelative="0.49" departed="0" arrived="0" entered="1" left="1" laneChangedFrom="0" laneChangedTo="0" flow="0.17"/>
        <edge id="--30278" sampledSeconds="4.94" traveltime="5.00" overlapTraveltime="5.92" density="0.03" overlapDensity="0.04" laneDensity="0.01" occupancy="0.01" waitingTime="1.00" timeLoss="4.30" speed="1.90" speedRelative="0.14" departed="1" arrived="1" entered="1" left="1" laneChangedFrom="1" laneChangedTo="1" flow="0.13"/>
        <edge id="--30280" sampledSeconds="236.25" traveltime="16.29" overlapTraveltime="16.99" density="0.05" overlapDensity="0.06" laneDensity="0.05" occupancy="0.03" waitingTime="0.00" timeLoss="34.96" speed="11.73" speedRelative="0.84" departed="2" arrived="1" entered="14" left="15" laneChangedFrom="0" laneChangedTo="0" flow="2.31"/>
        <edge id="--30282" sampledSeconds="125.38" traveltime="29.99" overlapTraveltime="30.55" density="0.02" overlapDensity="0.02" laneDensity="0.02" occupancy="0.01" waitingTime="0.00" timeLoss="21.16" speed="11.48" speedRelative="0.83" departed="1" arrived="4" entered="6" left="3" laneChangedFrom="0" laneChangedTo="0" flow="0.69"/>
        <edge id="--30284#0" sampledSeconds="15.11" traveltime="9.93" overlapTraveltime="10.60" density="0.01" overlapDensity="0.01" laneDensity="0.01" occupancy="0.00" waitingTime="0.00" timeLoss="6.86" speed="7.08" speedRelative="0.51" departed="0" arrived="2" entered="2" left="0" laneChangedFrom="0" laneChangedTo="0" flow="0.25"/>
        <edge id="--30286#1" sampledSeconds="62.62" traveltime="7.84" overlapTraveltime="8.56" density="0.03" overlapDensity="0.03" laneDensity="0.03" occupancy="0.02" waitingTime="0.00" timeLoss="12.93" speed="11.21" speedRelative="0.81" departed="1" arrived="0" entered="7" left="7" laneChangedFrom="0" laneChangedTo="0" flow="1.22"/>
        <edge id="--30286#2" sampledSeconds="45.07" traveltime="9.48" overlapTraveltime="9.86" density="0.02" overlapDensity="0.02" laneDensity="0.02" occupancy="0.01" waitingTime="1.00" timeLoss="6.20" speed="11.87" speedRelative="0.85" departed="0" arrived="1" entered="5" left="4" laneChangedFrom="0" laneChangedTo="0" flow="0.77"/>
        <edge id="--30286#3" sampledSeconds="15.71" traveltime="4.03" overlapTraveltime="4.40" density="0.01" overlapDensity="0.02" laneDensity="0.01" occupancy="0.01" waitingTime="0.00" timeLoss="3.23" speed="11.28" speedRelative="0.81" departed="1" arrived="0" entered="3" left="4" laneChangedFrom="0" laneChangedTo="0" flow="0.59"/>
        <edge id="--30286#4" sampledSeconds="16.68" traveltime="5.21" overlapTraveltime="5.56" density="0.01" overlapDensity="0.01" laneDensity="0.01" occupancy="0.01" waitingTime="0.00" timeLoss="2.27" speed="12.09" speedRelative="0.87" departed="0" arrived="0" entered="3" left="3" laneChangedFrom="0" laneChangedTo="0" flow="0.50"/>
        <edge id="--30288#0" sampledSeconds="12.02" traveltime="5.38" overlapTraveltime="6.01" density="0.01" overlapDensity="0.01" laneDensity="0.01" occupancy="0.00" waitingTime="0.00" timeLoss="3.36" speed="10.97" speedRelative="0.79" departed="0" arrived="0" entered="2" left="2" laneChangedFrom="0" laneChangedTo="0" flow="0.33"/>
        <edge id="--30288#1" sampledSeconds="10.12" traveltime="5.52" overlapTraveltime="5.89" density="0.01" overlapDensity="0.01" laneDensity="0.01" occupancy="0.00" waitingTime="0.00" timeLoss="2.54" speed="11.42" speedRelative="0.82" departed="0" arrived="1" entered="2" left="1" laneChangedFrom="0" laneChangedTo="0" flow="0.30"/>
        <edge id="--30290" sampledSeconds="30.12" traveltime="19.42" overlapTraveltime="20.20" density="0.01" overlapDensity="0.01" laneDensity="0.01" occupancy="0.00" waitingTime="0.00" timeLoss="12.76" speed="7.71" speedRelative="0.56" departed="4" arrived="0" entered="0" left="4" laneChangedFrom="0" laneChangedTo="0" flow="0.23"/>
        <edge id="--30294#0" sampledSeconds="107.19" traveltime="10.28" overlapTraveltime="11.92" density="0.04" overlapDensity="0.04" laneDensity="0.04" occupancy="0.04" waitingTime="0.00" timeLoss="22.08" speed="10.72" speedRelative="0.77" departed="0" arrived="0" entered="9" left="9" laneChangedFrom="0" laneChangedTo="0" flow="1.50"/>
        <edge id="--30294#1" sampledSeconds="131.96" traveltime="14.55" overlapTraveltime="15.82" density="0.03" overlapDensity="0.04" laneDensity="0.03" occupancy="0.04" waitingTime="0.00" timeLoss="26.05" speed="10.73" speedRelative="0.77" departed="3" arrived="0" entered="7" left="10" laneChangedFrom="0" laneChangedTo="0" flow="1.38"/>
        <edge id="--30296" sampledSeconds="51.72" traveltime="24.54" overlapTraveltime="24.97" density="0.01" overlapDensity="0.01" laneDensity="0.01" occupancy="0.00" waitingTime="0.00" timeLoss="14.08" speed="11.68" speedRelative="0.84" departed="0" arrived="4" entered="4" left="0" laneChangedFrom="0" laneChangedTo="0" flow="0.35"/>
        <edge id="--30304#0" sampledSeconds="107.80" traveltime="80.23" overlapTraveltime="80.71" density="0.01" overlapDensity="0.01" laneDensity="0.01" occupancy="0.00" waitingTime="0.00" timeLoss="12.94" speed="11.30" speedRelative="0.81" departed="3" arrived="0" entered="0" left="3" laneChangedFrom="0" laneChangedTo="0" flow="0.22"/>
        <edge id="--30304#1" sampledSeconds="10.46" traveltime="7.92" overlapTraveltime="8.80" density="0.01" overlapDensity="0.01" laneDensity="0.01" occupancy="0.00" waitingTime="0.00" timeLoss="3.46" speed="8.71" speedRelative="0.63" departed="1" arrived="0" entered="1" left="2" laneChangedFrom="0" laneChangedTo="0" flow="0.19"/>
        <edge id="--30304#2" sampledSeconds="6.21" traveltime="5.85" overlapTraveltime="6.21" density="0.00" overlapDensity="0.00" laneDensity="0.00" occupancy="0.00" waitingTime="0.00" timeLoss="0.31" speed="12.11" speedRelative="0.87" departed="0" arrived="0" entered="1" left="1" laneChangedFrom="0" laneChangedTo="0" flow="0.17"/>
        <edge id="--30306#1" sampledSeconds="23.69" traveltime="12.00" overlapTraveltime="12.59" density="0.01" overlapDensity="0.01" laneDensity="0.01" occupancy="0.00" waitingTime="0.00" timeLoss="6.88" speed="10.54" speedRelative="0.76" departed="0" arrived="2" entered="3" left="1" laneChangedFrom="0" laneChangedTo="0" flow="0.32"/>
        <edge id="--30306#2" sampledSeconds="175.77" traveltime="15.34" overlapTraveltime="16.63" density="0.12" overlapDensity="0.12" laneDensity="0.12" occupancy="0.12" waitingTime="0.00" timeLoss="39.27" speed="4.67" speedRelative="0.34" departed="4" arrived="0" entered="7" left="11" laneChangedFrom="0" laneChangedTo="0" flow="1.83"/>
        <edge id="--30306#3" sampledSeconds="29.29" traveltime="3.72" overlapTraveltime="4.07" density="0.03" overlapDensity="0.03" laneDensity="0.03" occupancy="0.01" waitingTime="0.00" timeLoss="2.86" speed="12.79" speedRelative="0.92" departed="0" arrived="1" entered="8" left="7" laneChangedFrom="0" laneChangedTo="0" flow="1.20"/>
        <edge id="--30306#4" sampledSeconds="40.29" traveltime="4.11" overlapTraveltime="4.48" density="0.03" overlapDensity="0.03" laneDensity="0.03" occupancy="0.02" waitingTime="0.00" timeLoss="1.73" speed="13.40" speedRelative="0.96" departed="0" arrived="0" entered="9" left="9" laneChangedFrom="0" laneChangedTo="0" flow="1.50"/>
        <edge id="--30306#5" sampledSeconds="162.55" traveltime="13.24" overlapTraveltime="13.64" density="0.04" overlapDensity="0.04" laneDensity="0.04" occupancy="0.02" waitingTime="0.00" timeLoss="13.10" speed="12.92" speedRelative="0.93" departed="2" arrived="0" entered="11" left="13" laneChangedFrom="0" laneChangedTo="0" flow="1.98"/>
        <edge id="--30306#6" sampledSeconds="70.88" traveltime="2.59" overlapTraveltime="3.22" density="0.10" overlapDensity="0.12" laneDensity="0.10" occupancy="0.05" waitingTime="0.00" timeLoss="20.84" speed="9.87" speedRelative="0.71" departed="0" arrived="0" entered="22" left="22" laneChangedFrom="0" laneChangedTo="0" flow="3.67"/>
        <edge id="--30314#0" sampledSeconds="1683.05" traveltime="16.87" overlapTraveltime="17.33" density="0.31" overlapDensity="0.31" laneDensity="0.10" occupancy="0.07" waitingTime="1.00" timeLoss="220.84" speed="14.74" speedRelative="0.76" departed="0" arrived="3" entered="100" left="97" laneChangedFrom="23" laneChangedTo="23" flow="16.25"/>
        <edge id="--30314#1" sampledSeconds="2345.41" traveltime="49.55" overlapTraveltime="50.36" density="0.36" overlapDensity="0.37" laneDensity="0.12" occupancy="0.06" waitingTime="961.00" timeLoss="1636.53" speed="5.91" speedRelative="0.30" departed="92" arrived="0" entered="0" left="90" laneChangedFrom="12" laneChangedTo="12" flow="7.64"/>
        <edge id="--30316" sampledSeconds="578.49" traveltime="115.76" overlapTraveltime="116.18" density="0.02" overlapDensity="0.02" laneDensity="0.02" occupancy="0.01" waitingTime="3.00" timeLoss="58.64" speed="11.80" speedRelative="0.85" departed="0" arrived="10" entered="10" left="0" laneChangedFrom="0" laneChangedTo="0" flow="0.83"/>
        <edge id="--30318" sampledSeconds="25.52" traveltime="8.00" overlapTraveltime="8.51" density="0.01" overlapDensity="0.01" laneDensity="0.01" occupancy="0.01" waitingTime="0.00" timeLoss="4.76" speed="10.72" speedRelative="0.77" departed="0" arrived="0" entered="3" left="3" laneChangedFrom="0" laneChangedTo="0" flow="0.50"/>
        <edge id="--30320" sampledSeconds="19.69" traveltime="21.94" overlapTraveltime="22.45" density="0.00" overlapDensity="0.00" laneDensity="0.00" occupancy="0.00" waitingTime="0.00" timeLoss="4.15" speed="9.95" speedRelative="0.72" departed="0" arrived="1" entered="1" left="0" laneChangedFrom="0" laneChangedTo="0" flow="0.15"/>
        <edge id="--30328#0" sampledSeconds="70.13" traveltime="13.39" overlapTraveltime="14.21" density="0.02" overlapDensity="0.02" laneDensity="0.02" occupancy="0.01" waitingTime="0.00" timeLoss="15.42" speed="10.28" speedRelative="0.74" departed="1" arrived="3" entered="6" left="4" laneChangedFrom="0" laneChangedTo="0" flow="0.83"/>
        <edge id="--30328#1" sampledSeconds="80.51" traveltime="13.27" overlapTraveltime="13.69" density="0.03" overlapDensity="0.03" laneDensity="0.03" occupancy="0.01" waitingTime="0.00" timeLoss="17.66" speed="9.97" speedRelative="0.72" departed="3" arrived="2" entered="5" left="6" laneChangedFrom="0" laneChangedTo="0" flow="0.98"/>
        <edge id="--30328#2" sampledSeconds="13.87" traveltime="1.90" overlapTraveltime="2.31" density="0.02" overlapDensity="0.03" laneDensity="0.02" occupancy="0.01" waitingTime="0.00" timeLoss="0.60" speed="12.61" speedRelative="0.91" departed="0" arrived="0" entered="6" left="6" laneChangedFrom="0" laneChangedTo="0" flow="1.00"/>
        <edge id="--30328#3" sampledSeconds="29.44" traveltime="4.49" overlapTraveltime="4.90" density="0.02" overlapDensity="0.02" laneDensity="0.02" occupancy="0.01" waitingTime="0.00" timeLoss="1.92" speed="12.31" speedRelative="0.89" departed="0" arrived="0" entered="6" left="6" laneChangedFrom="0" laneChangedTo="0" flow="1.00"/>
        <edge id="--30334#0" sampledSeconds="148.80" traveltime="17.05" overlapTraveltime="17.88" density="0.16" overlapDensity="0.17" laneDensity="0.16" occupancy="0.07" waitingTime="88.00" timeLoss="119.97" speed="2.59" speedRelative="0.19" departed="2" arrived="0" entered="7" left="9" laneChangedFrom="0" laneChangedTo="0" flow="1.37"/>
        <edge id="--30334#1" sampledSeconds="122.53" traveltime="23.51" overlapTraveltime="24.26" density="0.02" overlapDensity="0.02" laneDensity="0.02" occupancy="0.01" waitingTime="0.00" timeLoss="14.69" speed="11.54" speedRelative="0.83" departed="0" arrived="1" entered="6" left="5" laneChangedFrom="0" laneChangedTo="0" flow="0.84"/>
        <edge id="--30334#2" sampledSeconds="15.41" traveltime="18.23" overlapTraveltime="18.59" density="0.00" overlapDensity="0.00" laneDensity="0.00" occupancy="0.00" waitingTime="0.00" timeLoss="3.38" speed="11.05" speedRelative="0.80" departed="1" arrived="0" entered="0" left="1" laneChangedFrom="0" laneChangedTo="0" flow="0.14"/>
        <edge id="--30336#0" sampledSeconds="532.50" traveltime="23.63" overlapTraveltime="24.10" density="0.07" overlapDensity="0.07" laneDensity="0.02" occupancy="0.01" waitingTime="0.00" timeLoss="56.40" speed="14.96" speedRelative="0.90" departed="1" arrived="3" entered="22" left="20" laneChangedFrom="30" laneChangedTo="30" flow="3.69"/>
        <edge id="--30336#1" sampledSeconds="1162.09" traveltime="66.36" overlapTraveltime="67.34" density="0.06" overlapDensity="0.07" laneDensity="0.02" occupancy="0.01" waitingTime="196.00" timeLoss="328.07" speed="12.35" speedRelative="0.74" departed="1" arrived="9" entered="22" left="12" laneChangedFrom="7" laneChangedTo="7" flow="2.88"/>
        <edge id="--30336#2" sampledSeconds="1324.69" traveltime="23.76" overlapTraveltime="24.40" density="0.19" overlapDensity="0.20" laneDensity="0.06" occupancy="0.03" waitingTime="310.00" timeLoss="441.38" speed="12.81" speedRelative="0.66" departed="0" arrived="3" entered="55" left="51" laneChangedFrom="3" laneChangedTo="3" flow="9.06"/>
        <edge id="--30344" sampledSeconds="4.71" traveltime="1.27" overlapTraveltime="1.57" density="0.01" overlapDensity="0.01" laneDensity="0.01" occupancy="0.00" waitingTime="0.00" timeLoss="0.18" speed="14.90" speedRelative="1.07" departed="0" arrived="0" entered="3" left="3" laneChangedFrom="0" laneChangedTo="0" flow="0.50"/>
        <edge id="--30346#0" sampledSeconds="413.54" traveltime="25.57" overlapTraveltime="26.94" density="0.15" overlapDensity="0.16" laneDensity="0.15" occupancy="0.11" waitingTime="208.00" timeLoss="274.37" speed="4.75" speedRelative="0.34" departed="2" arrived="0" entered="14" left="16" laneChangedFrom="0" laneChangedTo="0" flow="2.56"/>
        <edge id="--30346#1" sampledSeconds="56.48" traveltime="14.25" overlapTraveltime="15.04" density="0.01" overlapDensity="0.02" laneDensity="0.01" occupancy="0.01" waitingTime="0.00" timeLoss="13.06" speed="11.77" speedRelative="0.85" departed="1" arrived="0" entered="3" left="4" laneChangedFrom="0" laneChangedTo="0" flow="0.62"/>
        <edge id="--30348#0" sampledSeconds="2524.75" traveltime="27.69" overlapTraveltime="28.81" density="0.84" overlapDensity="0.87" laneDensity="0.42" occupancy="0.25" waitingTime="1329.00" timeLoss="1648.29" speed="4.85" speedRelative="0.35" departed="2" arrived="0" entered="87" left="89" laneChangedFrom="1" laneChangedTo="1" flow="14.61"/>
        <edge id="--30348#1" sampledSeconds="234.40" traveltime="2.46" overlapTraveltime="2.91" density="0.29" overlapDensity="0.34" laneDensity="0.14" occupancy="0.08" waitingTime="0.00" timeLoss="14.12" speed="13.10" speedRelative="0.94" departed="0" arrived="0" entered="81" left="81" laneChangedFrom="7" laneChangedTo="7" flow="13.50"/>
        <edge id="--30348#2" sampledSeconds="806.00" traveltime="9.95" overlapTraveltime="10.54" density="0.32" overlapDensity="0.34" laneDensity="0.16" occupancy="0.11" waitingTime="0.00" timeLoss="73.92" speed="11.23" speedRelative="0.81" departed="0" arrived="0" entered="77" left="77" laneChangedFrom="15" laneChangedTo="15" flow="12.83"/>
        <edge id="--30348#3" sampledSeconds="667.50" traveltime="9.67" overlapTraveltime="10.73" density="0.54" overlapDensity="0.57" laneDensity="0.27" occupancy="0.26" waitingTime="3.00" timeLoss="101.40" speed="5.95" speedRelative="0.43" departed="1" arrived="0" entered="65" left="66" laneChangedFrom="5" laneChangedTo="5" flow="10.88"/>
        <edge id="--30348#4" sampledSeconds="640.12" traveltime="9.39" overlapTraveltime="9.90" density="0.24" overlapDensity="0.26" laneDensity="0.12" occupancy="0.08" waitingTime="1.00" timeLoss="76.08" speed="12.27" speedRelative="0.88" departed="1" arrived="1" entered="65" left="65" laneChangedFrom="7" laneChangedTo="7" flow="10.78"/>
        <edge id="--30348#5" sampledSeconds="2500.73" traveltime="38.62" overlapTraveltime="40.31" density="0.71" overlapDensity="0.73" laneDensity="0.35" occupancy="0.28" waitingTime="1159.00" timeLoss="1483.88" speed="4.12" speedRelative="0.30" departed="0" arrived="0" entered="63" left="61" laneChangedFrom="4" laneChangedTo="4" flow="10.44"/>
        <edge id="--30350" sampledSeconds="4.77" traveltime="5.07" overlapTraveltime="5.48" density="0.01" overlapDensity="0.01" laneDensity="0.01" occupancy="0.00" waitingTime="0.00" timeLoss="2.52" speed="6.04" speedRelative="0.44" departed="1" arrived="0" entered="0" left="1" laneChangedFrom="0" laneChangedTo="0" flow="0.14"/>
        <edge id="--30352" sampledSeconds="63.18" traveltime="12.62" overlapTraveltime="13.27" density="0.02" overlapDensity="0.02" laneDensity="0.02" occupancy="0.01" waitingTime="0.00" timeLoss="18.77" speed="9.41" speedRelative="0.68" departed="4" arrived="0" entered="3" left="7" laneChangedFrom="0" laneChangedTo="0" flow="0.78"/>
        <edge id="--30354" sampledSeconds="96.82" traveltime="10.73" overlapTraveltime="11.37" density="0.03" overlapDensity="0.04" laneDensity="0.03" occupancy="0.02" waitingTime="1.00" timeLoss="20.49" speed="11.25" speedRelative="0.81" departed="0" arrived="2" entered="10" left="8" laneChangedFrom="0" laneChangedTo="0" flow="1.42"/>
        <edge id="--30358#0" sampledSeconds="584.06" traveltime="25.92" overlapTraveltime="27.38" density="0.23" overlapDensity="0.24" laneDensity="0.12" occupancy="0.10" waitingTime="241.00" timeLoss="347.59" speed="4.40" speedRelative="0.26" departed="0" arrived="1" entered="22" left="21" laneChangedFrom="0" laneChangedTo="0" flow="3.59"/>
        <edge id="--30358#1" sampledSeconds="484.34" traveltime="21.95" overlapTraveltime="22.85" density="0.13" overlapDensity="0.14" laneDensity="0.07" occupancy="0.05" waitingTime="195.00" timeLoss="261.40" speed="7.56" speedRelative="0.45" departed="0" arrived="1" entered="22" left="21" laneChangedFrom="7" laneChangedTo="7" flow="3.54"/>
        <edge id="--30358#10" sampledSeconds="279.77" traveltime="11.29" overlapTraveltime="12.50" density="0.22" overlapDensity="0.24" laneDensity="0.11" occupancy="0.09" waitingTime="152.00" timeLoss="196.12" speed="4.98" speedRelative="0.30" departed="0" arrived="0" entered="23" left="23" laneChangedFrom="1" laneChangedTo="1" flow="3.83"/>
        <edge id="--30358#11" sampledSeconds="309.00" traveltime="6.45" overlapTraveltime="7.02" density="0.15" overlapDensity="0.17" laneDensity="0.08" occupancy="0.04" waitingTime="0.00" timeLoss="67.26" speed="13.02" speedRelative="0.78" departed="0" arrived="0" entered="44" left="44" laneChangedFrom="12" laneChangedTo="12" flow="7.33"/>
        <edge id="--30358#12" sampledSeconds="2121.90" traveltime="26.41" overlapTraveltime="27.78" density="0.94" overlapDensity="0.97" laneDensity="0.47" occupancy="0.33" waitingTime="1056.00" timeLoss="1403.24" speed="3.88" speedRelative="0.23" departed="4" arrived="4" entered="74" left="74" laneChangedFrom="62" laneChangedTo="62" flow="12.87"/>
        <edge id="--30358#13" sampledSeconds="66.92" traveltime="3.69" overlapTraveltime="4.17" density="0.05" overlapDensity="0.05" laneDensity="0.02" occupancy="0.02" waitingTime="0.00" timeLoss="5.42" speed="15.64" speedRelative="0.94" departed="0" arrived="0" entered="16" left="16" laneChangedFrom="1" laneChangedTo="1" flow="2.67"/>
        <edge id="--30358#14" sampledSeconds="42.92" traveltime="2.96" overlapTraveltime="3.48" density="0.04" overlapDensity="0.05" laneDensity="0.02" occupancy="0.02" waitingTime="0.00" timeLoss="5.87" speed="15.09" speedRelative="0.90" departed="0" arrived="1" entered="13" left="12" laneChangedFrom="2" laneChangedTo="2" flow="2.07"/>