<?xml version="1.0" encoding="UTF-8"?>

<!-- generated on 2026-04-19T14:56:04.025465+01:00 by Eclipse SUMO sumo 1.26.0
<sumoConfiguration xmlns:xsi="http://www.w3.org/2001/XMLSchema-instance" xsi:noNamespaceSchemaLocation="http://sumo.dlr.de/xsd/sumoConfiguration.xsd">

    <input>
        <net-file value="lust.net.xml"/>
        <route-files value="buslines.rou.xml,DUARoutes/local.0.rou.xml,DUARoutes/local.1.rou.xml,DUARoutes/local.2.rou.xml,transit.rou.xml"/>
        <additional-files value="vtypes.add.xml,busstops.add.xml,e1detectors.add.xml,lust.poly.xml,tll.static.xml"/>
    </input>

    <output>
        <summary-output value="dua.static.summary.xml"/>
        <tripinfo-output value="dua.static.tripinfo.xml"/>
        <edgedata-output value="dua.static.edgedata.xml"/>
    </output>

    <time>
        <begin value="0"/>
        <end value="86400"/>
        <step-length value="1"/>
    </time>

    <processing>
        <ignore-junction-blocker value="20"/>
        <time-to-teleport value="600"/>
        <max-depart-delay value="600"/>
    </processing>

    <routing>
        <routing-algorithm value="dijkstra"/>
        <device.rerouting.probability value="0.70"/>
        <device.rerouting.period value="300"/>
        <device.rerouting.pre-period value="300"/>
    </routing>

    <report>
        <verbose value="true"/>
        <log value="dua.static.log"/>
    </report>

</sumoConfiguration>
-->

<meandata xmlns:xsi="http://www.w3.org/2001/XMLSchema-instance" xsi:noNamespaceSchemaLocation="http://sumo.dlr.de/xsd/meandata_file.xsd">
    <interval begin="0.00" end="86400.00" id="DEFAULT_EDGEDATA">
        <edge id="--30244#0" sampledSeconds="26260.47" traveltime="67.11" overlapTraveltime="68.04" density="0.47" overlapDensity="0.47" laneDensity="0.23" occupancy="0.13" waitingTime="5556.00" timeLoss="8082.35" speed="9.52" speedRelative="0.69" departed="24" arrived="150" entered="446" left="320" laneChangedFrom="187" laneChangedTo="187" flow="16.10"/>
        <edge id="--30244#1" sampledSeconds="3706.87" traveltime="12.00" overlapTraveltime="12.46" density="0.28" overlapDensity="0.29" laneDensity="0.14" occupancy="0.08" waitingTime="5.00" timeLoss="426.13" speed="12.18" speedRelative="0.88" departed="37" arrived="40" entered="301" left="298" laneChangedFrom="68" laneChangedTo="68" flow="12.40"/>
        <edge id="--30244#2" sampledSeconds="4053.43" traveltime="13.33" overlapTraveltime="14.00" density="0.35" overlapDensity="0.36" laneDensity="0.17" occupancy="0.12" waitingTime="12.00" timeLoss="532.69" speed="9.81" speedRelative="0.71" departed="16" arrived="35" entered="306" left="287" laneChangedFrom="29" laneChangedTo="29" flow="12.18"/>
        <edge id="--30244#3" sampledSeconds="4362.06" traveltime="12.23" overlapTraveltime="12.73" density="0.32" overlapDensity="0.33" laneDensity="0.16" occupancy="0.09" waitingTime="15.00" timeLoss="445.10" speed="12.47" speedRelative="0.90" departed="13" arrived="45" entered="361" left="329" laneChangedFrom="87" laneChangedTo="87" flow="14.30"/>
        <edge id="--30244#4" sampledSeconds="3711.02" traveltime="15.56" overlapTraveltime="16.31" density="0.29" overlapDensity="0.30" laneDensity="0.14" occupancy="0.10" waitingTime="10.00" timeLoss="602.84" speed="9.26" speedRelative="0.67" departed="36" arrived="39" entered="231" left="228" laneChangedFrom="78" laneChangedTo="78" flow="9.57"/>
        <edge id="--30246" sampledSeconds="458.62" traveltime="16.26" overlapTraveltime="16.86" density="0.04" overlapDensity="0.04" laneDensity="0.04" occupancy="0.02" waitingTime="11.00" timeLoss="183.00" speed="8.32" speedRelative="0.60" departed="0" arrived="58" entered="58" left="0" laneChangedFrom="0" laneChangedTo="0" flow="1.18"/>
        <edge id="--30248" sampledSeconds="653.69" traveltime="7.79" overlapTraveltime="8.27" density="0.08" overlapDensity="0.08" laneDensity="0.08" occupancy="0.04" waitingTime="2.00" timeLoss="104.74" speed="11.63" speedRelative="0.84" departed="7" arrived="13" entered="82" left="76" laneChangedFrom="0" laneChangedTo="0" flow="3.30"/>
        <edge id="--30250" sampledSeconds="950.13" traveltime="8.01" overlapTraveltime="8.74" density="0.13" overlapDensity="0.15" laneDensity="0.13" occupancy="0.07" waitingTime="66.00" timeLoss="318.43" speed="9.15" speedRelative="0.66" departed="8" arrived="21" entered="116" left="103" laneChangedFrom="0" laneChangedTo="0" flow="4.55"/>
        <edge id="--30252" sampledSeconds="1637.13" traveltime="13.78" overlapTraveltime="14.50" density="0.14" overlapDensity="0.14" laneDensity="0.14" occupancy="0.07" waitingTime="14.00" timeLoss="504.28" speed="9.51" speedRelative="0.68" departed="39" arrived="54" entered="119" left="104" laneChangedFrom="0" laneChangedTo="0" flow="4.72"/>
        <edge id="--30254#0" sampledSeconds="50.19" traveltime="5.60" overlapTraveltime="7.85" density="0.05" overlapDensity="0.05" laneDensity="0.05" occupancy="0.02" waitingTime="3.00" timeLoss="42.24" speed="2.21" speedRelative="0.16" departed="0" arrived="17" entered="17" left="0" laneChangedFrom="0" laneChangedTo="0" flow="0.37"/>
        <edge id="--30254#1" sampledSeconds="118.97" traveltime="5.51" overlapTraveltime="6.26" density="0.05" overlapDensity="0.06" laneDensity="0.05" occupancy="0.03" waitingTime="0.00" timeLoss="79.52" speed="4.70" speedRelative="0.34" departed="27" arrived="0" entered="0" left="27" laneChangedFrom="0" laneChangedTo="0" flow="0.72"/>
        <edge id="--30256#0" sampledSeconds="422546.92" traveltime="60.24" overlapTraveltime="61.16" density="30.88" overlapDensity="31.35" laneDensity="10.29" occupancy="5.32" waitingTime="289054.00" timeLoss="341932.78" speed="2.64" speedRelative="0.19" departed="41" arrived="10" entered="6891" left="6922" laneChangedFrom="4197" laneChangedTo="4197" flow="287.94"/>
        <edge id="--30256#1" sampledSeconds="336368.84" traveltime="52.55" overlapTraveltime="53.75" density="10.64" overlapDensity="10.88" laneDensity="3.55" occupancy="1.80" waitingTime="122323.00" timeLoss="170312.64" speed="6.75" speedRelative="0.49" departed="115" arrived="40" entered="6223" left="6291" laneChangedFrom="6903" laneChangedTo="6903" flow="260.76"/>
        <edge id="--30256#2" sampledSeconds="148876.15" traveltime="23.16" overlapTraveltime="23.96" density="17.15" overlapDensity="17.74" laneDensity="5.72" occupancy="2.91" waitingTime="78140.00" timeLoss="102452.14" speed="4.26" speedRelative="0.31" departed="40" arrived="15" entered="6201" left="6222" laneChangedFrom="2157" laneChangedTo="2157" flow="258.92"/>
        <edge id="--30256#3" sampledSeconds="54053.98" traveltime="8.47" overlapTraveltime="8.88" density="6.04" overlapDensity="6.34" laneDensity="2.01" occupancy="1.00" waitingTime="53.00" timeLoss="7802.57" speed="11.69" speedRelative="0.84" departed="70" arrived="6" entered="6058" left="6122" laneChangedFrom="1478" laneChangedTo="1478" flow="253.67"/>
        <edge id="--30258" sampledSeconds="79.80" traveltime="9.69" overlapTraveltime="10.55" density="0.02" overlapDensity="0.02" laneDensity="0.02" occupancy="0.01" waitingTime="3.00" timeLoss="51.34" speed="5.06" speedRelative="0.36" departed="13" arrived="0" entered="0" left="13" laneChangedFrom="0" laneChangedTo="0" flow="0.29"/>
        <edge id="--30260" sampledSeconds="76431.37" traveltime="40.23" overlapTraveltime="41.56" density="1.42" overlapDensity="1.47" laneDensity="0.71" occupancy="0.36" waitingTime="2593.00" timeLoss="8856.45" speed="14.60" speedRelative="0.88" departed="146" arrived="149" entered="1843" left="1840" laneChangedFrom="349" laneChangedTo="349" flow="76.63"/>
        <edge id="--30262#0" sampledSeconds="3367.99" traveltime="15.18" overlapTraveltime="15.97" density="0.24" overlapDensity="0.25" laneDensity="0.24" occupancy="0.12" waitingTime="238.00" timeLoss="911.10" speed="10.01" speedRelative="0.72" departed="12" arrived="23" entered="218" left="207" laneChangedFrom="0" laneChangedTo="0" flow="8.79"/>
        <edge id="--30262#1" sampledSeconds="1639.04" traveltime="9.96" overlapTraveltime="10.38" density="0.15" overlapDensity="0.16" laneDensity="0.15" occupancy="0.08" waitingTime="3.00" timeLoss="220.58" speed="11.92" speedRelative="0.86" departed="19" arrived="18" entered="159" left="160" laneChangedFrom="0" laneChangedTo="0" flow="6.58"/>
        <edge id="--30262#2" sampledSeconds="1244.35" traveltime="11.82" overlapTraveltime="12.52" density="0.11" overlapDensity="0.12" laneDensity="0.11" occupancy="0.06" waitingTime="7.00" timeLoss="333.10" speed="10.17" speedRelative="0.73" departed="15" arrived="19" entered="102" left="98" laneChangedFrom="0" laneChangedTo="0" flow="4.14"/>
        <edge id="--30264#0" sampledSeconds="251.92" traveltime="18.99" overlapTraveltime="19.31" density="0.02" overlapDensity="0.02" laneDensity="0.02" occupancy="0.01" waitingTime="0.00" timeLoss="78.49" speed="9.53" speedRelative="0.69" departed="23" arrived="0" entered="3" left="26" laneChangedFrom="0" laneChangedTo="0" flow="0.53"/>
        <edge id="--30264#1" sampledSeconds="155.01" traveltime="5.71" overlapTraveltime="7.33" density="0.11" overlapDensity="0.11" laneDensity="0.11" occupancy="0.04" waitingTime="13.00" timeLoss="122.82" speed="2.92" speedRelative="0.21" departed="0" arrived="46" entered="49" left="3" laneChangedFrom="0" laneChangedTo="0" flow="1.12"/>
        <edge id="--30266" sampledSeconds="5396.36" traveltime="28.04" overlapTraveltime="29.01" density="0.47" overlapDensity="0.49" laneDensity="0.47" occupancy="0.24" waitingTime="2810.00" timeLoss="3600.69" speed="4.61" speedRelative="0.33" departed="18" arrived="29" entered="194" left="183" laneChangedFrom="0" laneChangedTo="0" flow="7.76"/>
        <edge id="--30270#0" sampledSeconds="812.19" traveltime="21.22" overlapTraveltime="21.72" density="0.04" overlapDensity="0.04" laneDensity="0.04" occupancy="0.02" waitingTime="6.00" timeLoss="221.76" speed="10.13" speedRelative="0.73" departed="0" arrived="73" entered="73" left="0" laneChangedFrom="0" laneChangedTo="0" flow="1.59"/>
        <edge id="--30270#1" sampledSeconds="705.79" traveltime="2.98" overlapTraveltime="3.47" density="0.20" overlapDensity="0.24" laneDensity="0.20" occupancy="0.12" waitingTime="1.00" timeLoss="99.68" speed="11.82" speedRelative="0.85" departed="10" arrived="9" entered="202" left="203" laneChangedFrom="0" laneChangedTo="0" flow="8.52"/>
        <edge id="--30272" sampledSeconds="1028.61" traveltime="12.73" overlapTraveltime="13.35" density="0.08" overlapDensity="0.09" laneDensity="0.08" occupancy="0.04" waitingTime="5.00" timeLoss="215.25" speed="10.81" speedRelative="0.78" departed="1" arrived="30" entered="94" left="65" laneChangedFrom="0" laneChangedTo="0" flow="3.23"/>
        <edge id="--30274" sampledSeconds="103.19" traveltime="2.72" overlapTraveltime="3.43" density="0.05" overlapDensity="0.07" laneDensity="0.05" occupancy="0.03" waitingTime="0.00" timeLoss="53.37" speed="6.43" speedRelative="0.46" departed="7" arrived="0" entered="25" left="32" laneChangedFrom="0" laneChangedTo="0" flow="1.23"/>
        <edge id="--30278" sampledSeconds="562.63" traveltime="2.19" overlapTraveltime="3.03" density="0.73" overlapDensity="1.00" laneDensity="0.37" occupancy="0.18" waitingTime="138.30" timeLoss="408.00" speed="3.79" speedRelative="0.27" departed="5" arrived="14" entered="193" left="184" laneChangedFrom="175" laneChangedTo="175" flow="7.82"/>
        <edge id="--30280" sampledSeconds="12640.77" traveltime="16.67" overlapTraveltime="17.34" density="0.72" overlapDensity="0.75" laneDensity="0.72" occupancy="0.36" waitingTime="32.00" timeLoss="1940.31" speed="11.48" speedRelative="0.83" departed="16" arrived="30" entered="734" left="720" laneChangedFrom="0" laneChangedTo="0" flow="30.38"/>
        <edge id="--30282" sampledSeconds="3287.43" traveltime="31.01" overlapTraveltime="31.78" density="0.11" overlapDensity="0.11" laneDensity="0.11" occupancy="0.06" waitingTime="34.00" timeLoss="632.05" speed="11.03" speedRelative="0.79" departed="42" arrived="54" entered="107" left="95" laneChangedFrom="0" laneChangedTo="0" flow="4.31"/>
        <edge id="--30284#0" sampledSeconds="205.22" traveltime="11.44" overlapTraveltime="12.29" density="0.03" overlapDensity="0.03" laneDensity="0.03" occupancy="0.02" waitingTime="5.00" timeLoss="113.97" speed="6.15" speedRelative="0.44" departed="0" arrived="39" entered="39" left="0" laneChangedFrom="0" laneChangedTo="0" flow="0.75"/>
        <edge id="--30286#0" sampledSeconds="371.54" traveltime="12.20" overlapTraveltime="12.88" density="0.05" overlapDensity="0.05" laneDensity="0.05" occupancy="0.02" waitingTime="13.00" timeLoss="183.37" speed="7.07" speedRelative="0.51" departed="0" arrived="60" entered="60" left="0" laneChangedFrom="0" laneChangedTo="0" flow="1.27"/>
        <edge id="--30286#1" sampledSeconds="1190.12" traveltime="8.21" overlapTraveltime="9.01" density="0.14" overlapDensity="0.15" laneDensity="0.14" occupancy="0.07" waitingTime="1.00" timeLoss="259.13" speed="10.65" speedRelative="0.77" departed="10" arrived="11" entered="131" left="130" laneChangedFrom="0" laneChangedTo="0" flow="5.51"/>
        <edge id="--30286#2" sampledSeconds="1048.95" traveltime="9.75" overlapTraveltime="10.17" density="0.10" overlapDensity="0.11" laneDensity="0.10" occupancy="0.05" waitingTime="6.00" timeLoss="164.64" speed="11.52" speedRelative="0.83" departed="18" arrived="20" entered="102" left="100" laneChangedFrom="0" laneChangedTo="0" flow="4.30"/>
        <edge id="--30286#3" sampledSeconds="608.20" traveltime="3.91" overlapTraveltime="4.32" density="0.14" overlapDensity="0.16" laneDensity="0.14" occupancy="0.07" waitingTime="0.00" timeLoss="92.85" speed="11.56" speedRelative="0.83" departed="10" arrived="10" entered="139" left="139" laneChangedFrom="0" laneChangedTo="0" flow="5.86"/>
        <edge id="--30286#4" sampledSeconds="1107.36" traveltime="5.68" overlapTraveltime="6.16" density="0.19" overlapDensity="0.20" laneDensity="0.19" occupancy="0.09" waitingTime="2.00" timeLoss="219.82" speed="10.97" speedRelative="0.79" departed="5" arrived="16" entered="186" left="175" laneChangedFrom="0" laneChangedTo="0" flow="7.51"/>
        <edge id="--30288#0" sampledSeconds="639.04" traveltime="7.21" overlapTraveltime="7.87" density="0.11" overlapDensity="0.12" laneDensity="0.11" occupancy="0.06" waitingTime="2.00" timeLoss="250.60" speed="8.35" speedRelative="0.60" departed="27" arrived="19" entered="75" left="83" laneChangedFrom="0" laneChangedTo="0" flow="3.37"/>
        <edge id="--30288#1" sampledSeconds="407.19" traveltime="5.68" overlapTraveltime="6.09" density="0.07" overlapDensity="0.08" laneDensity="0.07" occupancy="0.04" waitingTime="2.00" timeLoss="82.26" speed="11.07" speedRelative="0.80" departed="4" arrived="16" entered="72" left="60" laneChangedFrom="0" laneChangedTo="0" flow="2.81"/>
        <edge id="--30290" sampledSeconds="2301.22" traveltime="14.17" overlapTraveltime="14.88" density="0.17" overlapDensity="0.18" laneDensity="0.17" occupancy="0.09" waitingTime="2.00" timeLoss="537.38" speed="10.45" speedRelative="0.75" departed="39" arrived="7" entered="139" left="171" laneChangedFrom="0" laneChangedTo="0" flow="6.42"/>
        <edge id="--30294#0" sampledSeconds="14240.61" traveltime="27.11" overlapTraveltime="28.57" density="1.33" overlapDensity="1.41" laneDensity="1.33" occupancy="0.76" waitingTime="6786.00" timeLoss="9807.90" speed="4.30" speedRelative="0.31" departed="23" arrived="32" entered="503" left="494" laneChangedFrom="0" laneChangedTo="0" flow="20.74"/>
        <edge id="--30294#1" sampledSeconds="4584.01" traveltime="14.26" overlapTraveltime="15.11" density="0.31" overlapDensity="0.33" laneDensity="0.31" occupancy="0.20" waitingTime="87.00" timeLoss="915.77" speed="10.97" speedRelative="0.79" departed="27" arrived="29" entered="305" left="303" laneChangedFrom="0" laneChangedTo="0" flow="12.64"/>
        <edge id="--30296" sampledSeconds="1217.89" traveltime="28.50" overlapTraveltime="29.00" density="0.05" overlapDensity="0.05" laneDensity="0.05" occupancy="0.02" waitingTime="13.00" timeLoss="313.75" speed="10.06" speedRelative="0.72" departed="0" arrived="85" entered="85" left="0" laneChangedFrom="0" laneChangedTo="0" flow="1.78"/>
        <edge id="--30304#0" sampledSeconds="6933.14" traveltime="75.36" overlapTraveltime="75.76" density="0.09" overlapDensity="0.09" laneDensity="0.09" occupancy="0.04" waitingTime="15.00" timeLoss="849.50" speed="12.02" speedRelative="0.87" departed="80" arrived="98" entered="98" left="80" laneChangedFrom="0" laneChangedTo="0" flow="3.82"/>
        <edge id="--30304#1" sampledSeconds="790.24" traveltime="6.68" overlapTraveltime="7.26" density="0.12" overlapDensity="0.13" laneDensity="0.12" occupancy="0.06" waitingTime="3.00" timeLoss="174.99" speed="10.53" speedRelative="0.76" departed="19" arrived="15" entered="107" left="111" laneChangedFrom="0" laneChangedTo="0" flow="4.53"/>
        <edge id="--30304#2" sampledSeconds="1045.64" traveltime="6.31" overlapTraveltime="6.82" density="0.16" overlapDensity="0.17" laneDensity="0.16" occupancy="0.08" waitingTime="4.00" timeLoss="191.26" speed="11.09" speedRelative="0.80" departed="15" arrived="20" entered="154" left="149" laneChangedFrom="0" laneChangedTo="0" flow="6.40"/>
        <edge id="--30306#0" sampledSeconds="983.94" traveltime="25.02" overlapTraveltime="25.55" density="0.05" overlapDensity="0.05" laneDensity="0.05" occupancy="0.02" waitingTime="11.00" timeLoss="269.30" speed="9.78" speedRelative="0.70" departed="0" arrived="78" entered="78" left="0" laneChangedFrom="0" laneChangedTo="0" flow="1.64"/>
        <edge id="--30306#1" sampledSeconds="1476.65" traveltime="10.87" overlapTraveltime="11.39" density="0.13" overlapDensity="0.13" laneDensity="0.13" occupancy="0.07" waitingTime="8.00" timeLoss="214.72" speed="11.70" speedRelative="0.84" departed="0" arrived="33" entered="148" left="115" laneChangedFrom="0" laneChangedTo="0" flow="5.42"/>
        <edge id="--30306#2" sampledSeconds="3410.28" traveltime="7.85" overlapTraveltime="8.51" density="0.56" overlapDensity="0.59" laneDensity="0.56" occupancy="0.40" waitingTime="67.00" timeLoss="601.81" speed="8.76" speedRelative="0.63" departed="33" arrived="21" entered="390" left="402" laneChangedFrom="0" laneChangedTo="0" flow="17.11"/>
        <edge id="--30306#3" sampledSeconds="1739.79" traveltime="3.91" overlapTraveltime="4.32" density="0.39" overlapDensity="0.43" laneDensity="0.39" occupancy="0.20" waitingTime="3.00" timeLoss="203.97" speed="12.12" speedRelative="0.87" departed="0" arrived="30" entered="420" left="390" laneChangedFrom="0" laneChangedTo="0" flow="16.84"/>
        <edge id="--30306#4" sampledSeconds="2334.88" traveltime="4.48" overlapTraveltime="4.89" density="0.45" overlapDensity="0.49" laneDensity="0.45" occupancy="0.23" waitingTime="7.00" timeLoss="242.24" speed="12.31" speedRelative="0.89" departed="0" arrived="30" entered="493" left="463" laneChangedFrom="0" laneChangedTo="0" flow="19.96"/>
        <edge id="--30306#5" sampledSeconds="8350.26" traveltime="13.56" overlapTraveltime="13.96" density="0.55" overlapDensity="0.56" laneDensity="0.55" occupancy="0.28" waitingTime="8.00" timeLoss="683.84" speed="12.63" speedRelative="0.91" departed="28" arrived="34" entered="602" left="596" laneChangedFrom="0" laneChangedTo="0" flow="24.92"/>
        <edge id="--30306#6" sampledSeconds="2781.90" traveltime="2.61" overlapTraveltime="3.18" density="0.99" overlapDensity="1.20" laneDensity="0.99" occupancy="0.51" waitingTime="1.34" timeLoss="736.82" speed="10.08" speedRelative="0.73" departed="4" arrived="7" entered="878" left="875" laneChangedFrom="0" laneChangedTo="0" flow="36.53"/>
        <edge id="--30314#0" sampledSeconds="32517.91" traveltime="16.23" overlapTraveltime="16.65" density="1.48" overlapDensity="1.51" laneDensity="0.49" occupancy="0.28" waitingTime="15.00" timeLoss="5035.80" speed="15.28" speedRelative="0.79" departed="50" arrived="21" entered="1938" left="1967" laneChangedFrom="811" laneChangedTo="811" flow="81.46"/>
        <edge id="--30314#1" sampledSeconds="50264.59" traveltime="52.61" overlapTraveltime="53.42" density="1.93" overlapDensity="1.99" laneDensity="0.64" occupancy="0.33" waitingTime="20331.00" timeLoss="35641.86" speed="5.57" speedRelative="0.29" departed="1767" arrived="7" entered="0" left="1760" laneChangedFrom="674" laneChangedTo="674" flow="38.62"/>
        <edge id="--30316" sampledSeconds="23393.59" traveltime="115.83" overlapTraveltime="116.34" density="0.20" overlapDensity="0.20" laneDensity="0.20" occupancy="0.10" waitingTime="536.00" timeLoss="2978.60" speed="11.79" speedRelative="0.85" departed="19" arrived="354" entered="365" left="30" laneChangedFrom="0" laneChangedTo="0" flow="8.40"/>
        <edge id="--30318" sampledSeconds="3294.23" traveltime="8.27" overlapTraveltime="8.92" density="0.41" overlapDensity="0.44" laneDensity="0.41" occupancy="0.20" waitingTime="6.00" timeLoss="849.16" speed="10.26" speedRelative="0.74" departed="0" arrived="31" entered="385" left="354" laneChangedFrom="0" laneChangedTo="0" flow="15.42"/>
        <edge id="--30320" sampledSeconds="1227.50" traveltime="23.25" overlapTraveltime="23.79" density="0.07" overlapDensity="0.07" laneDensity="0.07" occupancy="0.03" waitingTime="19.00" timeLoss="376.99" speed="9.39" speedRelative="0.68" departed="0" arrived="106" entered="106" left="0" laneChangedFrom="0" laneChangedTo="0" flow="2.20"/>
        <edge id="--30328#0" sampledSeconds="2738.27" traveltime="13.16" overlapTraveltime="13.93" density="0.21" overlapDensity="0.22" laneDensity="0.21" occupancy="0.11" waitingTime="18.00" timeLoss="654.82" speed="10.51" speedRelative="0.76" departed="46" arrived="73" entered="209" left="182" laneChangedFrom="0" laneChangedTo="0" flow="8.21"/>
        <edge id="--30328#1" sampledSeconds="2037.71" traveltime="12.26" overlapTraveltime="12.71" density="0.17" overlapDensity="0.18" laneDensity="0.17" occupancy="0.09" waitingTime="12.00" timeLoss="449.27" speed="10.76" speedRelative="0.77" departed="54" arrived="74" entered="172" left="152" laneChangedFrom="0" laneChangedTo="0" flow="6.69"/>
        <edge id="--30328#2" sampledSeconds="619.97" traveltime="2.60" overlapTraveltime="3.01" density="0.27" overlapDensity="0.30" laneDensity="0.27" occupancy="0.13" waitingTime="14.00" timeLoss="186.80" speed="9.59" speedRelative="0.69" departed="2" arrived="58" entered="239" left="183" laneChangedFrom="0" laneChangedTo="0" flow="8.77"/>
        <edge id="--30328#3" sampledSeconds="1400.33" traveltime="5.07" overlapTraveltime="5.50" density="0.27" overlapDensity="0.29" laneDensity="0.27" occupancy="0.13" waitingTime="9.00" timeLoss="286.82" speed="10.93" speedRelative="0.79" departed="2" arrived="37" entered="274" left="239" laneChangedFrom="0" laneChangedTo="0" flow="10.66"/>
        <edge id="--30330" sampledSeconds="220.48" traveltime="10.54" overlapTraveltime="11.30" density="0.04" overlapDensity="0.04" laneDensity="0.04" occupancy="0.02" waitingTime="0.00" timeLoss="121.45" speed="6.07" speedRelative="0.44" departed="35" arrived="0" entered="0" left="35" laneChangedFrom="0" laneChangedTo="0" flow="0.76"/>
        <edge id="--30334#0" sampledSeconds="2607.28" traveltime="20.71" overlapTraveltime="21.48" density="0.69" overlapDensity="0.73" laneDensity="0.69" occupancy="0.35" waitingTime="1744.00" timeLoss="2199.09" speed="2.17" speedRelative="0.16" departed="29" arrived="0" entered="104" left="133" laneChangedFrom="0" laneChangedTo="0" flow="5.01"/>
        <edge id="--30334#1" sampledSeconds="2293.17" traveltime="24.27" overlapTraveltime="25.02" density="0.09" overlapDensity="0.10" laneDensity="0.09" occupancy="0.05" waitingTime="8.00" timeLoss="426.76" speed="11.19" speedRelative="0.81" departed="33" arrived="46" entered="93" left="80" laneChangedFrom="0" laneChangedTo="0" flow="3.83"/>
        <edge id="--30334#2" sampledSeconds="384.71" traveltime="19.93" overlapTraveltime="20.27" density="0.02" overlapDensity="0.02" laneDensity="0.02" occupancy="0.01" waitingTime="0.00" timeLoss="102.39" speed="10.15" speedRelative="0.73" departed="29" arrived="0" entered="0" left="29" laneChangedFrom="0" laneChangedTo="0" flow="0.78"/>
        <edge id="--30336#0" sampledSeconds="24613.57" traveltime="24.34" overlapTraveltime="24.73" density="0.79" overlapDensity="0.80" laneDensity="0.26" occupancy="0.14" waitingTime="22.00" timeLoss="2805.69" speed="14.54" speedRelative="0.87" departed="77" arrived="127" entered="1014" left="963" laneChangedFrom="1361" laneChangedTo="1361" flow="41.49"/>
        <edge id="--30336#1" sampledSeconds="53547.84" traveltime="71.28" overlapTraveltime="72.41" density="0.74" overlapDensity="0.75" laneDensity="0.25" occupancy="0.12" waitingTime="10143.00" timeLoss="16245.35" speed="11.49" speedRelative="0.69" departed="139" arrived="230" entered="788" left="697" laneChangedFrom="1161" laneChangedTo="1161" flow="30.83"/>
        <edge id="--30336#2" sampledSeconds="47684.53" traveltime="25.05" overlapTraveltime="25.73" density="1.75" overlapDensity="1.79" laneDensity="0.58" occupancy="0.29" waitingTime="11023.00" timeLoss="17431.35" speed="12.15" speedRelative="0.62" departed="53" arrived="105" entered="1885" left="1832" laneChangedFrom="510" laneChangedTo="510" flow="77.23"/>
        <edge id="--30344" sampledSeconds="238.50" traveltime="1.81" overlapTraveltime="2.26" density="0.12" overlapDensity="0.15" laneDensity="0.12" occupancy="0.06" waitingTime="1.42" timeLoss="53.78" speed="10.61" speedRelative="0.76" departed="4" arrived="9" entered="109" left="104" laneChangedFrom="0" laneChangedTo="0" flow="4.44"/>
        <edge id="--30346#0" sampledSeconds="6152.00" traveltime="22.37" overlapTraveltime="23.29" density="0.57" overlapDensity="0.59" laneDensity="0.57" occupancy="0.33" waitingTime="2842.00" timeLoss="3745.54" speed="5.43" speedRelative="0.39" departed="21" arrived="16" entered="261" left="266" laneChangedFrom="0" laneChangedTo="0" flow="10.99"/>
        <edge id="--30346#1" sampledSeconds="1041.36" traveltime="17.37" overlapTraveltime="18.07" density="0.07" overlapDensity="0.07" laneDensity="0.07" occupancy="0.03" waitingTime="6.00" timeLoss="306.53" speed="9.79" speedRelative="0.70" departed="29" arrived="36" entered="62" left="55" laneChangedFrom="0" laneChangedTo="0" flow="2.40"/>
        <edge id="--30348#0" sampledSeconds="61928.62" traveltime="28.27" overlapTraveltime="29.05" density="5.21" overlapDensity="5.36" laneDensity="2.61" occupancy="1.34" waitingTime="31023.00" timeLoss="40417.04" speed="4.78" speedRelative="0.34" departed="76" arrived="4" entered="2095" left="2167" laneChangedFrom="25" laneChangedTo="25" flow="88.80"/>
        <edge id="--30348#1" sampledSeconds="6219.15" traveltime="2.62" overlapTraveltime="3.03" density="1.94" overlapDensity="2.24" laneDensity="0.97" occupancy="0.49" waitingTime="2.00" timeLoss="669.79" speed="12.29" speedRelative="0.88" departed="15" arrived="12" entered="2054" left="2057" laneChangedFrom="189" laneChangedTo="189" flow="85.61"/>
        <edge id="--30348#2" sampledSeconds="20270.32" traveltime="9.35" overlapTraveltime="9.86" density="2.00" overlapDensity="2.11" laneDensity="1.00" occupancy="0.55" waitingTime="62.00" timeLoss="2185.60" speed="11.85" speedRelative="0.85" departed="32" arrived="29" entered="2058" left="2061" laneChangedFrom="352" laneChangedTo="352" flow="85.93"/>
        <edge id="--30348#3" sampledSeconds="10084.22" traveltime="4.99" overlapTraveltime="5.48" density="1.98" overlapDensity="2.15" laneDensity="0.99" occupancy="0.61" waitingTime="14.00" timeLoss="1064.42" speed="11.02" speedRelative="0.79" departed="16" arrived="15" entered="1866" left="1867" laneChangedFrom="130" laneChangedTo="130" flow="77.75"/>
        <edge id="--30348#4" sampledSeconds="17987.59" traveltime="9.48" overlapTraveltime="9.90" density="1.73" overlapDensity="1.81" laneDensity="0.87" occupancy="0.45" waitingTime="13.00" timeLoss="2135.91" speed="12.14" speedRelative="0.87" departed="19" arrived="31" entered="1823" left="1811" laneChangedFrom="203" laneChangedTo="203" flow="75.75"/>
        <edge id="--30348#5" sampledSeconds="59855.27" traveltime="33.31" overlapTraveltime="34.38" density="4.25" overlapDensity="4.38" laneDensity="2.12" occupancy="1.16" waitingTime="29927.00" timeLoss="38271.92" speed="4.76" speedRelative="0.34" departed="54" arrived="24" entered="1726" left="1756" laneChangedFrom="475" laneChangedTo="475" flow="72.60"/>
        <edge id="--30350" sampledSeconds="117.70" traveltime="6.37" overlapTraveltime="6.84" density="0.04" overlapDensity="0.05" laneDensity="0.04" occupancy="0.02" waitingTime="0.00" timeLoss="74.41" speed="4.92" speedRelative="0.35" departed="30" arrived="0" entered="0" left="30" laneChangedFrom="0" laneChangedTo="0" flow="0.62"/>
        <edge id="--30352" sampledSeconds="1410.13" traveltime="12.45" overlapTraveltime="13.16" density="0.13" overlapDensity="0.14" laneDensity="0.13" occupancy="0.07" waitingTime="10.00" timeLoss="423.54" speed="9.49" speedRelative="0.68" departed="35" arrived="41" entered="111" left="105" laneChangedFrom="0" laneChangedTo="0" flow="4.47"/>
        <edge id="--30354" sampledSeconds="6978.88" traveltime="15.01" overlapTraveltime="15.95" density="0.62" overlapDensity="0.66" laneDensity="0.62" occupancy="0.32" waitingTime="1427.00" timeLoss="2943.73" speed="8.02" speedRelative="0.58" departed="31" arrived="25" entered="435" left="441" laneChangedFrom="0" laneChangedTo="0" flow="18.22"/>
        <edge id="--30358#0" sampledSeconds="12376.90" traveltime="25.26" overlapTraveltime="26.36" density="1.23" overlapDensity="1.28" laneDensity="0.62" occupancy="0.39" waitingTime="6213.01" timeLoss="8403.44" speed="4.48" speedRelative="0.27" departed="19" arrived="26" entered="476" left="469" laneChangedFrom="53" laneChangedTo="53" flow="19.63"/>