<?xml version="1.0" encoding="UTF-8"?>

<!-- generated on 2026-04-23 11:46:46 by Eclipse SUMO sumo Version 1.19.0
<configuration xmlns:xsi="http://www.w3.org/2001/XMLSchema-instance" xsi:noNamespaceSchemaLocation="http://sumo.dlr.de/xsd/sumoConfiguration.xsd">

    <input>
        <net-file value="LuSTScenario-master/scenario\lust.net.xml"/>
        <route-files value="LuSTScenario-master/scenario\buslines.rou.xml,LuSTScenario-master/scenario\DUARoutes/local.0.rou.xml,LuSTScenario-master/scenario\DUARoutes/local.1.rou.xml,LuSTScenario-master/scenario\DUARoutes/local.2.rou.xml,LuSTScenario-master/scenario\transit.rou.xml"/>
        <additional-files value="LuSTScenario-master/scenario\vtypes.add.xml,LuSTScenario-master/scenario\busstops.add.xml,LuSTScenario-master/scenario\e1detectors.add.xml,LuSTScenario-master/scenario\lust.poly.xml,LuSTScenario-master/scenario\tll.static.xml"/>
    </input>

    <output>
        <summary-output value="LuSTScenario-master/scenario\dua.static.summary.xml"/>
        <tripinfo-output value="LuSTScenario-master/scenario\dua.static.tripinfo.xml"/>
        <edgedata-output value="LuSTScenario-master/scenario\dua.static.edgedata.xml"/>
    </output>

    <time>
        <begin value="25000"/>
        <end value="25600"/>
        <step-length value="1"/>
    </time>

    <processing>
        <ignore-junction-blocker value="20"/>
        <ignore-route-errors value="true"/>
        <time-to-teleport value="600"/>
        <max-depart-delay value="600"/>
    </processing>

    <routing>
        <routing-algorithm value="dijkstra"/>
        <device.rerouting.probability value="0.70"/>
        <device.rerouting.period value="300"/>
        <device.rerouting.pre-period value="300"/>
    </routing>

    <report>
        <verbose value="true"/>
        <log value="LuSTScenario-master/scenario\dua.static.log"/>
    </report>

    <traci_server>
        <remote-port value="60455"/>
    </traci_server>

</configuration>
-->

<tripinfos xmlns:xsi="http://www.w3.org/2001/XMLSchema-instance" xsi:noNamespaceSchemaLocation="http://sumo.dlr.de/xsd/tripinfo_file.xsd">
    <tripinfo id="h33094c2:1" depart="25012.00" departLane="--32756#0_0" departPos="1858.42" departSpeed="0.00" departDelay="0.00" arrival="25013.00" arrivalLane="--32756#0_0" arrivalPos="764.97" arrivalSpeed="0.00" duration="1.00" routeLength="-1093.45" waitingTime="1.00" waitingCount="1" stopTime="0.00" timeLoss="1.00" rerouteNo="0" devices="tripinfo_h33094c2:1" vType="passenger1" speedFactor="0.91" vaporized=""/>
    <tripinfo id="h67473c1:1" depart="25014.00" departLane="-32440_0" departPos="43.65" departSpeed="0.00" departDelay="0.00" arrival="25015.00" arrivalLane="-32440_0" arrivalPos="2.12" arrivalSpeed="0.00" duration="1.00" routeLength="-41.53" waitingTime="1.00" waitingCount="1" stopTime="0.00" timeLoss="1.00" rerouteNo="0" devices="tripinfo_h67473c1:1" vType="passenger2a" speedFactor="1.01" vaporized=""/>
    <tripinfo id="h57785c1:1" depart="25003.00" departLane="-31786_0" departPos="1609.34" departSpeed="0.00" departDelay="0.00" arrival="25020.00" arrivalLane="-31786_0" arrivalPos="1747.15" arrivalSpeed="0.07" duration="17.00" routeLength="137.81" waitingTime="1.00" waitingCount="1" stopTime="0.00" timeLoss="8.82" rerouteNo="0" devices="tripinfo_h57785c1:1 routing_h57785c1:1" vType="passenger2b" speedFactor="1.01" vaporized=""/>
    <tripinfo id="h72555c1:1" depart="25022.00" departLane="-32792#0_0" departPos="1103.87" departSpeed="0.00" departDelay="0.00" arrival="25023.00" arrivalLane="-32792#0_0" arrivalPos="129.39" arrivalSpeed="0.00" duration="1.00" routeLength="-974.48" waitingTime="1.00" waitingCount="1" stopTime="0.00" timeLoss="1.00" rerouteNo="0" devices="tripinfo_h72555c1:1 routing_h72555c1:1" vType="passenger1" speedFactor="1.01" vaporized=""/>
    <tripinfo id="h58384c1:1" depart="25025.00" departLane="-31818#6_0" departPos="134.14" departSpeed="0.00" departDelay="0.00" arrival="25026.00" arrivalLane="-31818#6_0" arrivalPos="72.96" arrivalSpeed="0.00" duration="1.00" routeLength="-61.18" waitingTime="1.00" waitingCount="1" stopTime="0.00" timeLoss="1.00" rerouteNo="0" devices="tripinfo_h58384c1:1 routing_h58384c1:1" vType="passenger3" speedFactor="1.00" vaporized=""/>
    <tripinfo id="h69337c1:1" depart="25053.00" departLane="-32586#2_0" departPos="114.32" departSpeed="0.00" departDelay="0.00" arrival="25054.00" arrivalLane="-32586#2_0" arrivalPos="73.05" arrivalSpeed="0.00" duration="1.00" routeLength="-41.27" waitingTime="1.00" waitingCount="1" stopTime="0.00" timeLoss="1.00" rerouteNo="0" devices="tripinfo_h69337c1:1" vType="passenger1" speedFactor="0.97" vaporized=""/>
    <tripinfo id="h12998c1:1" depart="25055.00" departLane="--32266_0" departPos="745.96" departSpeed="0.00" departDelay="0.00" arrival="25056.00" arrivalLane="--32266_0" arrivalPos="62.72" arrivalSpeed="0.00" duration="1.00" routeLength="-683.24" waitingTime="1.00" waitingCount="1" stopTime="0.00" timeLoss="1.00" rerouteNo="0" devices="tripinfo_h12998c1:1 routing_h12998c1:1" vType="passenger2b" speedFactor="1.15" vaporized=""/>
    <tripinfo id="randUni19212:1" depart="25022.00" departLane="--32634#0_0" departPos="64.19" departSpeed="0.00" departDelay="0.00" arrival="25062.00" arrivalLane="-31196#2_0" arrivalPos="10.11" arrivalSpeed="0.15" duration="40.00" routeLength="448.56" waitingTime="0.00" waitingCount="0" stopTime="0.00" timeLoss="8.79" rerouteNo="0" devices="tripinfo_randUni19212:1 routing_randUni19212:1" vType="passenger4" speedFactor="1.03" vaporized=""/>
    <tripinfo id="h14417c1:1" depart="25001.00" departLane="--31360#1_0" departPos="206.23" departSpeed="0.00" departDelay="0.00" arrival="25133.00" arrivalLane="--31522#0_0" arrivalPos="3.19" arrivalSpeed="0.14" duration="132.00" routeLength="1525.00" waitingTime="0.00" waitingCount="0" stopTime="0.00" timeLoss="25.02" rerouteNo="0" devices="tripinfo_h14417c1:1 routing_h14417c1:1" vType="passenger2b" speedFactor="1.03" vaporized=""/>
    <tripinfo id="carIn3711:1" depart="25046.00" departLane="--30964_0" departPos="189.99" departSpeed="0.00" departDelay="0.00" arrival="25147.00" arrivalLane="-30608#0_0" arrivalPos="119.38" arrivalSpeed="0.21" duration="101.00" routeLength="1318.44" waitingTime="0.00" waitingCount="0" stopTime="0.00" timeLoss="15.22" rerouteNo="0" devices="tripinfo_carIn3711:1 routing_carIn3711:1" vType="passenger1" speedFactor="0.87" vaporized=""/>
    <tripinfo id="h25208c1:1" depart="25168.00" departLane="--32140_0" departPos="153.02" departSpeed="0.00" departDelay="0.00" arrival="25169.00" arrivalLane="--32140_0" arrivalPos="84.86" arrivalSpeed="0.00" duration="1.00" routeLength="-68.16" waitingTime="1.00" waitingCount="1" stopTime="0.00" timeLoss="1.00" rerouteNo="0" devices="tripinfo_h25208c1:1 routing_h25208c1:1" vType="passenger2a" speedFactor="1.18" vaporized=""/>
    <tripinfo id="h2093c1:1" depart="25182.00" departLane="--30408_0" departPos="490.29" departSpeed="0.00" departDelay="0.00" arrival="25183.00" arrivalLane="--30408_0" arrivalPos="243.45" arrivalSpeed="0.00" duration="1.00" routeLength="-246.84" waitingTime="1.00" waitingCount="1" stopTime="0.00" timeLoss="1.00" rerouteNo="0" devices="tripinfo_h2093c1:1 routing_h2093c1:1" vType="passenger2b" speedFactor="1.01" vaporized=""/>
    <tripinfo id="carIn48116:1" depart="25155.00" departLane="--30542#1_0" departPos="1.69" departSpeed="0.00" departDelay="5.00" arrival="25186.00" arrivalLane="--31272#7_0" arrivalPos="14.74" arrivalSpeed="0.09" duration="31.00" routeLength="182.48" waitingTime="6.00" waitingCount="2" stopTime="0.00" timeLoss="17.83" rerouteNo="0" devices="tripinfo_carIn48116:1" vType="passenger5" speedFactor="1.00" vaporized=""/>
    <tripinfo id="h18555c1:1" depart="25019.00" departLane="--31668#3_0" departPos="508.54" departSpeed="0.00" departDelay="0.00" arrival="25188.00" arrivalLane="--31952#15_2" arrivalPos="147.58" arrivalSpeed="3.50" duration="169.00" routeLength="1964.02" waitingTime="9.00" waitingCount="1" stopTime="0.00" timeLoss="28.99" rerouteNo="0" devices="tripinfo_h18555c1:1 routing_h18555c1:1" vType="passenger1" speedFactor="1.01" vaporized=""/>
    <tripinfo id="h17232c2:1" depart="25014.00" departLane="--31564#1_0" departPos="33.03" departSpeed="0.00" departDelay="0.00" arrival="25191.00" arrivalLane="-30662_1" arrivalPos="80.24" arrivalSpeed="1.02" duration="177.00" routeLength="1914.71" waitingTime="7.00" waitingCount="2" stopTime="0.00" timeLoss="42.84" rerouteNo="1" devices="tripinfo_h17232c2:1 routing_h17232c2:1" vType="passenger1" speedFactor="0.98" vaporized=""/>
    <tripinfo id="h20018c1:1" depart="25191.00" departLane="--31786_0" departPos="1712.58" departSpeed="0.00" departDelay="0.00" arrival="25192.00" arrivalLane="--31786_0" arrivalPos="218.04" arrivalSpeed="0.00" duration="1.00" routeLength="-1494.54" waitingTime="1.00" waitingCount="1" stopTime="0.00" timeLoss="1.00" rerouteNo="0" devices="tripinfo_h20018c1:1 routing_h20018c1:1" vType="passenger4" speedFactor="0.89" vaporized=""/>
    <tripinfo id="carIn17626:1" depart="25045.00" departLane="--30542#1_0" departPos="55.33" departSpeed="0.00" departDelay="0.00" arrival="25197.00" arrivalLane="-32818#2_0" arrivalPos="8.02" arrivalSpeed="0.13" duration="152.00" routeLength="1203.24" waitingTime="43.00" waitingCount="2" stopTime="0.00" timeLoss="70.64" rerouteNo="1" devices="tripinfo_carIn17626:1 routing_carIn17626:1" vType="passenger1" speedFactor="1.06" vaporized=""/>
    <tripinfo id="randUni15192:1" depart="25007.00" departLane="-31676#2_0" departPos="8.74" departSpeed="0.00" departDelay="0.00" arrival="25203.00" arrivalLane="--31466#2_0" arrivalPos="641.88" arrivalSpeed="0.30" duration="196.00" routeLength="1586.61" waitingTime="72.00" waitingCount="2" stopTime="0.00" timeLoss="99.57" rerouteNo="0" devices="tripinfo_randUni15192:1 routing_randUni15192:1" vType="passenger1" speedFactor="1.09" vaporized=""/>
    <tripinfo id="carIn21282:1" depart="25006.00" departLane="--32510_0" departPos="189.90" departSpeed="0.00" departDelay="0.00" arrival="25207.00" arrivalLane="-30528#46_0" arrivalPos="5.53" arrivalSpeed="0.10" duration="201.00" routeLength="2222.05" waitingTime="43.00" waitingCount="3" stopTime="0.00" timeLoss="66.58" rerouteNo="0" devices="tripinfo_carIn21282:1" vType="passenger5" speedFactor="1.01" vaporized=""/>
    <tripinfo id="h32390c1:1" depart="25003.00" departLane="--32720#2_0" departPos="35.35" departSpeed="0.00" departDelay="0.00" arrival="25214.00" arrivalLane="-31636#2_0" arrivalPos="923.91" arrivalSpeed="0.09" duration="211.00" routeLength="2511.98" waitingTime="25.00" waitingCount="3" stopTime="0.00" timeLoss="49.85" rerouteNo="0" devices="tripinfo_h32390c1:1 routing_h32390c1:1" vType="passenger2a" speedFactor="1.02" vaporized=""/>
    <tripinfo id="randUni11299:1" depart="25053.00" departLane="--31866#1_0" departPos="7.24" departSpeed="0.00" departDelay="0.00" arrival="25215.00" arrivalLane="--32468#4_1" arrivalPos="46.88" arrivalSpeed="0.08" duration="162.00" routeLength="2128.45" waitingTime="15.00" waitingCount="2" stopTime="0.00" timeLoss="43.14" rerouteNo="0" devices="tripinfo_randUni11299:1" vType="passenger4" speedFactor="1.24" vaporized=""/>
    <tripinfo id="h68434c1:1" depart="25214.00" departLane="-32510_0" departPos="259.34" departSpeed="0.00" departDelay="0.00" arrival="25215.00" arrivalLane="-32510_0" arrivalPos="212.28" arrivalSpeed="0.00" duration="1.00" routeLength="-47.06" waitingTime="1.00" waitingCount="1" stopTime="0.00" timeLoss="1.00" rerouteNo="0" devices="tripinfo_h68434c1:1 routing_h68434c1:1" vType="passenger1" speedFactor="0.96" vaporized=""/>
    <tripinfo id="carIn48585:1" depart="25125.00" departLane="--30542#1_0" departPos="36.30" departSpeed="0.00" departDelay="1.00" arrival="25219.00" arrivalLane="-32064#0_0" arrivalPos="89.85" arrivalSpeed="0.10" duration="94.00" routeLength="1053.44" waitingTime="0.00" waitingCount="0" stopTime="0.00" timeLoss="12.28" rerouteNo="0" devices="tripinfo_carIn48585:1 routing_carIn48585:1" vType="passenger1" speedFactor="0.91" vaporized=""/>
    <tripinfo id="h3809c1:1" depart="25224.00" departLane="--30528#50_0" departPos="82.98" departSpeed="0.00" departDelay="0.00" arrival="25225.00" arrivalLane="--30528#50_0" arrivalPos="74.61" arrivalSpeed="0.00" duration="1.00" routeLength="-8.37" waitingTime="1.00" waitingCount="1" stopTime="0.00" timeLoss="1.00" rerouteNo="0" devices="tripinfo_h3809c1:1 routing_h3809c1:1" vType="passenger2a" speedFactor="0.95" vaporized=""/>
    <tripinfo id="carIn4304:1" depart="25073.00" departLane="--32442_0" departPos="436.99" departSpeed="0.00" departDelay="0.00" arrival="25228.00" arrivalLane="--32792#0_0" arrivalPos="438.13" arrivalSpeed="0.12" duration="155.00" routeLength="2300.78" waitingTime="0.00" waitingCount="0" stopTime="0.00" timeLoss="22.25" rerouteNo="0" devices="tripinfo_carIn4304:1" vType="passenger1" speedFactor="1.11" vaporized=""/>
    <tripinfo id="h66928c1:1" depart="25003.00" departLane="-32404#1_0" departPos="30.77" departSpeed="0.00" departDelay="0.00" arrival="25235.00" arrivalLane="--30648#8_0" arrivalPos="84.36" arrivalSpeed="0.09" duration="232.00" routeLength="2392.91" waitingTime="32.00" waitingCount="2" stopTime="0.00" timeLoss="55.31" rerouteNo="0" devices="tripinfo_h66928c1:1 routing_h66928c1:1" vType="passenger3" speedFactor="0.97" vaporized=""/>
    <tripinfo id="carIn41339:1" depart="25132.00" departLane="--30542#1_0" departPos="79.86" departSpeed="0.00" departDelay="0.00" arrival="25238.00" arrivalLane="--31564#0_0" arrivalPos="21.59" arrivalSpeed="0.41" duration="106.00" routeLength="593.08" waitingTime="41.00" waitingCount="2" stopTime="0.00" timeLoss="69.42" rerouteNo="0" devices="tripinfo_carIn41339:1" vType="passenger2a" speedFactor="1.17" vaporized=""/>
    <tripinfo id="h40751c1:1" depart="25240.00" departLane="-30584_0" departPos="40.96" departSpeed="0.00" departDelay="0.00" arrival="25241.00" arrivalLane="-30584_0" arrivalPos="25.05" arrivalSpeed="0.00" duration="1.00" routeLength="-15.92" waitingTime="1.00" waitingCount="1" stopTime="0.00" timeLoss="1.00" rerouteNo="0" devices="tripinfo_h40751c1:1" vType="passenger1" speedFactor="0.77" vaporized=""/>
    <tripinfo id="h7765c1:1" depart="25079.00" departLane="--30822#2_0" departPos="222.28" departSpeed="0.00" departDelay="0.00" arrival="25243.00" arrivalLane="--31496#9_0" arrivalPos="121.32" arrivalSpeed="0.10" duration="164.00" routeLength="1401.89" waitingTime="27.00" waitingCount="3" stopTime="0.00" timeLoss="57.95" rerouteNo="0" devices="tripinfo_h7765c1:1 routing_h7765c1:1" vType="passenger1" speedFactor="0.95" vaporized=""/>
    <tripinfo id="h48212c1:1" depart="25206.00" departLane="-31074_0" departPos="247.38" departSpeed="0.00" departDelay="0.00" arrival="25244.00" arrivalLane="-31074_1" arrivalPos="719.14" arrivalSpeed="0.25" duration="38.00" routeLength="471.76" waitingTime="0.00" waitingCount="0" stopTime="0.00" timeLoss="6.91" rerouteNo="0" devices="tripinfo_h48212c1:1 routing_h48212c1:1" vType="passenger2a" speedFactor="0.91" vaporized=""/>
    <tripinfo id="6FRtoLU.379" depart="25006.00" departLane="-32426#0_0" departPos="5.10" departSpeed="13.89" departDelay="3.00" arrival="25251.00" arrivalLane="-32400#5_0" arrivalPos="257.03" arrivalSpeed="40.20" duration="245.00" routeLength="6507.94" waitingTime="0.00" waitingCount="0" stopTime="0.00" timeLoss="29.38" rerouteNo="0" devices="tripinfo_6FRtoLU.379" vType="passenger1" speedFactor="1.11" vaporized=""/>
    <tripinfo id="h54916c1:1" depart="25001.00" departLane="-31576#1_0" departPos="134.36" departSpeed="0.00" departDelay="0.00" arrival="25259.00" arrivalLane="-31048#4_0" arrivalPos="17.94" arrivalSpeed="0.54" duration="258.00" routeLength="3121.51" waitingTime="15.00" waitingCount="1" stopTime="0.00" timeLoss="56.25" rerouteNo="0" devices="tripinfo_h54916c1:1 routing_h54916c1:1" vType="passenger2a" speedFactor="0.99" vaporized=""/>
    <tripinfo id="carIn28827:1" depart="25168.00" departLane="-32766_0" departPos="1514.65" departSpeed="0.00" departDelay="1.00" arrival="25260.00" arrivalLane="-30336#1_0" arrivalPos="646.70" arrivalSpeed="2.02" duration="92.00" routeLength="1469.47" waitingTime="0.00" waitingCount="0" stopTime="0.00" timeLoss="9.98" rerouteNo="0" devices="tripinfo_carIn28827:1" vType="passenger1" speedFactor="1.07" vaporized=""/>
    <tripinfo id="h12235c1:1" depart="25093.00" departLane="--31166#0_0" departPos="138.74" departSpeed="0.00" departDelay="0.00" arrival="25264.00" arrivalLane="--31628_0" arrivalPos="513.18" arrivalSpeed="0.59" duration="171.00" routeLength="1733.42" waitingTime="23.00" waitingCount="1" stopTime="0.00" timeLoss="43.05" rerouteNo="0" devices="tripinfo_h12235c1:1 routing_h12235c1:1" vType="passenger2a" speedFactor="0.93" vaporized=""/>
    <tripinfo id="carIn17551:1" depart="25027.00" departLane="-30706#0_0" departPos="35.52" departSpeed="0.00" departDelay="10.00" arrival="25265.00" arrivalLane="--31462#0_0" arrivalPos="191.09" arrivalSpeed="0.21" duration="238.00" routeLength="3971.70" waitingTime="15.00" waitingCount="2" stopTime="0.00" timeLoss="47.68" rerouteNo="0" devices="tripinfo_carIn17551:1 routing_carIn17551:1" vType="passenger3" speedFactor="0.97" vaporized=""/>
    <tripinfo id="carIn44558:1" depart="25057.00" departLane="-30706#0_0" departPos="311.23" departSpeed="0.00" departDelay="7.00" arrival="25266.00" arrivalLane="-31066#7_0" arrivalPos="64.06" arrivalSpeed="0.07" duration="209.00" routeLength="3847.64" waitingTime="1.00" waitingCount="1" stopTime="0.00" timeLoss="27.26" rerouteNo="0" devices="tripinfo_carIn44558:1 routing_carIn44558:1" vType="passenger5" speedFactor="1.10" vaporized=""/>
    <tripinfo id="carIn24117:1" depart="25002.00" departLane="--30542#1_0" departPos="34.72" departSpeed="0.00" departDelay="0.00" arrival="25267.00" arrivalLane="--32924#2_1" arrivalPos="63.22" arrivalSpeed="0.36" duration="265.00" routeLength="1822.14" waitingTime="85.00" waitingCount="4" stopTime="0.00" timeLoss="123.46" rerouteNo="1" devices="tripinfo_carIn24117:1 routing_carIn24117:1" vType="passenger3" speedFactor="0.93" vaporized=""/>
    <tripinfo id="h73800c1:1" depart="25267.00" departLane="-32906#3_0" departPos="12.36" departSpeed="0.00" departDelay="0.00" arrival="25268.00" arrivalLane="-32906#3_0" arrivalPos="7.08" arrivalSpeed="0.00" duration="1.00" routeLength="-5.28" waitingTime="1.00" waitingCount="1" stopTime="0.00" timeLoss="1.00" rerouteNo="0" devices="tripinfo_h73800c1:1" vType="passenger4" speedFactor="1.02" vaporized=""/>
    <tripinfo id="h66521c1:1" depart="25273.00" departLane="-32226#4_0" departPos="465.37" departSpeed="0.00" departDelay="0.00" arrival="25274.00" arrivalLane="-32226#4_0" arrivalPos="362.91" arrivalSpeed="0.00" duration="1.00" routeLength="-102.46" waitingTime="1.00" waitingCount="1" stopTime="0.00" timeLoss="1.00" rerouteNo="0" devices="tripinfo_h66521c1:1 routing_h66521c1:1" vType="passenger1" speedFactor="1.05" vaporized=""/>
    <tripinfo id="h47363c1:1" depart="25274.00" departLane="-31032_0" departPos="236.14" departSpeed="0.00" departDelay="0.00" arrival="25275.00" arrivalLane="-31032_0" arrivalPos="80.05" arrivalSpeed="0.00" duration="1.00" routeLength="-156.09" waitingTime="1.00" waitingCount="1" stopTime="0.00" timeLoss="1.00" rerouteNo="0" devices="tripinfo_h47363c1:1 routing_h47363c1:1" vType="passenger1" speedFactor="1.07" vaporized=""/>
    <tripinfo id="carIn31504:1" depart="25034.00" departLane="-32426#0_0" departPos="73.78" departSpeed="0.00" departDelay="0.00" arrival="25276.00" arrivalLane="--32776#10_0" arrivalPos="50.86" arrivalSpeed="0.19" duration="242.00" routeLength="5830.15" waitingTime="0.00" waitingCount="0" stopTime="0.00" timeLoss="23.16" rerouteNo="0" devices="tripinfo_carIn31504:1 routing_carIn31504:1" vType="passenger5" speedFactor="1.08" vaporized=""/>
    <tripinfo id="h5982c1:1" depart="25266.00" departLane="--30720#4_0" departPos="245.39" departSpeed="0.00" departDelay="0.00" arrival="25277.00" arrivalLane="--30720#4_0" arrivalPos="321.68" arrivalSpeed="0.18" duration="11.00" routeLength="76.30" waitingTime="0.00" waitingCount="0" stopTime="0.00" timeLoss="5.57" rerouteNo="0" devices="tripinfo_h5982c1:1" vType="passenger3" speedFactor="1.01" vaporized=""/>
    <tripinfo id="carIn49594:1" depart="25070.00" departLane="--30542#1_0" departPos="8.05" departSpeed="0.00" departDelay="0.00" arrival="25283.00" arrivalLane="--32810#2_0" arrivalPos="25.86" arrivalSpeed="0.79" duration="213.00" routeLength="1385.37" waitingTime="87.00" waitingCount="3" stopTime="0.00" timeLoss="125.14" rerouteNo="1" devices="tripinfo_carIn49594:1 routing_carIn49594:1" vType="passenger2b" speedFactor="1.14" vaporized=""/>
    <tripinfo id="carIn42408:1" depart="25009.00" departLane="-32426#0_0" departPos="26.00" departSpeed="0.00" departDelay="3.00" arrival="25284.00" arrivalLane="--32742#0_0" arrivalPos="127.89" arrivalSpeed="0.12" duration="275.00" routeLength="4549.87" waitingTime="0.00" waitingCount="0" stopTime="0.00" timeLoss="35.16" rerouteNo="1" devices="tripinfo_carIn42408:1 routing_carIn42408:1" vType="passenger1" speedFactor="1.18" vaporized=""/>
    <tripinfo id="6BEtoFR.341" depart="25015.00" departLane="-30668#0_0" departPos="6.10" departSpeed="13.89" departDelay="3.00" arrival="25288.00" arrivalLane="-31366#3_2" arrivalPos="20.69" arrivalSpeed="41.51" duration="273.00" routeLength="9434.02" waitingTime="0.00" waitingCount="0" stopTime="0.00" timeLoss="36.90" rerouteNo="0" devices="tripinfo_6BEtoFR.341 routing_6BEtoFR.341" vType="passenger3" speedFactor="1.18" vaporized=""/>
    <tripinfo id="6FRtoLU.380" depart="25013.00" departLane="-32426#0_0" departPos="7.10" departSpeed="13.89" departDelay="7.00" arrival="25291.00" arrivalLane="-32400#5_0" arrivalPos="257.03" arrivalSpeed="29.64" duration="278.00" routeLength="6505.94" waitingTime="0.00" waitingCount="0" stopTime="0.00" timeLoss="13.92" rerouteNo="0" devices="tripinfo_6FRtoLU.380 routing_6FRtoLU.380" vType="passenger5" speedFactor="0.99" vaporized=""/>
    <tripinfo id="carIn45887:1" depart="25034.00" departLane="--31568_0" departPos="9.69" departSpeed="0.00" departDelay="0.00" arrival="25292.00" arrivalLane="-31452#0_0" arrivalPos="20.98" arrivalSpeed="2.36" duration="258.00" routeLength="2956.58" waitingTime="0.00" waitingCount="0" stopTime="0.00" timeLoss="28.16" rerouteNo="0" devices="tripinfo_carIn45887:1" vType="passenger2a" speedFactor="0.91" vaporized=""/>
    <tripinfo id="6FRtoLU.381" depart="25037.00" departLane="-32426#0_0" departPos="5.10" departSpeed="13.89" departDelay="0.00" arrival="25292.00" arrivalLane="-32400#5_0" arrivalPos="257.03" arrivalSpeed="31.50" duration="255.00" routeLength="6507.94" waitingTime="0.00" waitingCount="0" stopTime="0.00" timeLoss="26.77" rerouteNo="0" devices="tripinfo_6FRtoLU.381 routing_6FRtoLU.381" vType="passenger1" speedFactor="1.05" vaporized=""/>
    <tripinfo id="carIn44543:1" depart="25075.00" departLane="-30668#0_0" departPos="70.90" departSpeed="0.00" departDelay="0.00" arrival="25293.00" arrivalLane="--32596#2_0" arrivalPos="187.89" arrivalSpeed="1.02" duration="218.00" routeLength="5450.24" waitingTime="0.00" waitingCount="0" stopTime="0.00" timeLoss="46.03" rerouteNo="0" devices="tripinfo_carIn44543:1 routing_carIn44543:1" vType="passenger2b" speedFactor="1.13" vaporized=""/>
    <tripinfo id="6FRtoLU.382" depart="25038.00" departLane="-32426#0_0" departPos="5.10" departSpeed="13.89" departDelay="0.00" arrival="25294.00" arrivalLane="-32400#5_0" arrivalPos="257.03" arrivalSpeed="33.48" duration="256.00" routeLength="6507.94" waitingTime="0.00" waitingCount="0" stopTime="0.00" timeLoss="42.38" rerouteNo="0" devices="tripinfo_6FRtoLU.382" vType="passenger1" speedFactor="1.13" vaporized=""/>
    <tripinfo id="carIn19832:1" depart="25238.00" departLane="-30246_0" departPos="75.87" departSpeed="0.00" departDelay="0.00" arrival="25299.00" arrivalLane="--30860#1_1" arrivalPos="23.76" arrivalSpeed="0.08" duration="61.00" routeLength="680.42" waitingTime="1.00" waitingCount="1" stopTime="0.00" timeLoss="18.44" rerouteNo="0" devices="tripinfo_carIn19832:1 routing_carIn19832:1" vType="passenger1" speedFactor="1.12" vaporized=""/>
    <tripinfo id="carIn5011:1" depart="25076.00" departLane="--30542#1_0" departPos="26.96" departSpeed="0.00" departDelay="4.00" arrival="25301.00" arrivalLane="--31230#4_1" arrivalPos="45.34" arrivalSpeed="0.09" duration="225.00" routeLength="1668.64" waitingTime="75.00" waitingCount="4" stopTime="0.00" timeLoss="110.99" rerouteNo="0" devices="tripinfo_carIn5011:1" vType="passenger1" speedFactor="1.05" vaporized=""/>
    <tripinfo id="carIn29893:1" depart="25100.00" departLane="-32792#0_0" departPos="82.38" departSpeed="0.00" departDelay="0.00" arrival="25301.00" arrivalLane="--31884#4_0" arrivalPos="28.17" arrivalSpeed="0.16" duration="201.00" routeLength="2473.69" waitingTime="20.00" waitingCount="1" stopTime="0.00" timeLoss="46.37" rerouteNo="0" devices="tripinfo_carIn29893:1 routing_carIn29893:1" vType="passenger1" speedFactor="1.03" vaporized=""/>
    <tripinfo id="h42497c1:1" depart="25050.00" departLane="-31714#0_0" departPos="44.28" departSpeed="0.00" departDelay="0.00" arrival="25302.00" arrivalLane="--30646#1_1" arrivalPos="98.66" arrivalSpeed="0.25" duration="252.00" routeLength="2411.51" waitingTime="49.00" waitingCount="3" stopTime="0.00" timeLoss="88.06" rerouteNo="0" devices="tripinfo_h42497c1:1 routing_h42497c1:1" vType="passenger2a" speedFactor="1.04" vaporized=""/>
    <tripinfo id="carIn28981:1" depart="25220.00" departLane="--30542#1_0" departPos="68.67" departSpeed="0.00" departDelay="7.00" arrival="25303.00" arrivalLane="-31602#0_0" arrivalPos="144.13" arrivalSpeed="0.16" duration="83.00" routeLength="379.28" waitingTime="29.00" waitingCount="2" stopTime="0.00" timeLoss="56.98" rerouteNo="0" devices="tripinfo_carIn28981:1 routing_carIn28981:1" vType="passenger1" speedFactor="1.05" vaporized=""/>
    <tripinfo id="h40337c1:1" depart="25302.00" departLane="-30548_0" departPos="74.04" departSpeed="0.00" departDelay="0.00" arrival="25303.00" arrivalLane="-30548_0" arrivalPos="23.83" arrivalSpeed="0.00" duration="1.00" routeLength="-50.21" waitingTime="1.00" waitingCount="1" stopTime="0.00" timeLoss="1.00" rerouteNo="0" devices="tripinfo_h40337c1:1" vType="passenger1" speedFactor="0.94" vaporized=""/>
    <tripinfo id="h14137c1:1" depart="25189.00" departLane="--31340#0_0" departPos="60.19" departSpeed="0.00" departDelay="0.00" arrival="25308.00" arrivalLane="-32400#5_2" arrivalPos="91.52" arrivalSpeed="0.74" duration="119.00" routeLength="3006.51" waitingTime="0.00" waitingCount="0" stopTime="0.00" timeLoss="18.49" rerouteNo="0" devices="tripinfo_h14137c1:1" vType="passenger2a" speedFactor="1.13" vaporized=""/>
    <tripinfo id="carIn38148:1" depart="25067.00" departLane="-31622#0_0" departPos="50.00" departSpeed="0.00" departDelay="1.00" arrival="25310.00" arrivalLane="-31134#1_0" arrivalPos="211.53" arrivalSpeed="0.59" duration="243.00" routeLength="4140.26" waitingTime="36.00" waitingCount="3" stopTime="0.00" timeLoss="92.32" rerouteNo="0" devices="tripinfo_carIn38148:1" vType="passenger2b" speedFactor="1.21" vaporized=""/>
    <tripinfo id="h2775c1:1" depart="25307.00" departLane="--30452_0" departPos="13.26" departSpeed="0.00" departDelay="0.00" arrival="25310.00" arrivalLane="--30452_0" arrivalPos="17.55" arrivalSpeed="0.80" duration="3.00" routeLength="4.30" waitingTime="0.00" waitingCount="0" stopTime="0.00" timeLoss="2.71" rerouteNo="0" devices="tripinfo_h2775c1:1 routing_h2775c1:1" vType="passenger3" speedFactor="1.06" vaporized=""/>
    <tripinfo id="carIn23194:1" depart="25035.00" departLane="-30668#0_0" departPos="371.85" departSpeed="0.00" departDelay="0.00" arrival="25311.00" arrivalLane="--32878#0_0" arrivalPos="166.33" arrivalSpeed="0.22" duration="276.00" routeLength="2167.83" waitingTime="80.00" waitingCount="3" stopTime="0.00" timeLoss="120.05" rerouteNo="0" devices="tripinfo_carIn23194:1 routing_carIn23194:1" vType="passenger4" speedFactor="0.88" vaporized=""/>
    <tripinfo id="h72271c1:1" depart="25085.00" departLane="--32776#3_0" departPos="159.13" departSpeed="0.00" departDelay="0.00" arrival="25313.00" arrivalLane="--31302_0" arrivalPos="8.87" arrivalSpeed="0.45" duration="228.00" routeLength="2007.76" waitingTime="54.00" waitingCount="2" stopTime="0.00" timeLoss="87.01" rerouteNo="1" devices="tripinfo_h72271c1:1 routing_h72271c1:1" vType="passenger3" speedFactor="1.02" vaporized=""/>
    <tripinfo id="h42322c1:1" depart="25314.00" departLane="-30720#2_0" departPos="80.26" departSpeed="0.00" departDelay="0.00" arrival="25315.00" arrivalLane="-30720#2_0" arrivalPos="28.20" arrivalSpeed="0.00" duration="1.00" routeLength="-52.05" waitingTime="1.00" waitingCount="1" stopTime="0.00" timeLoss="1.00" rerouteNo="0" devices="tripinfo_h42322c1:1 routing_h42322c1:1" vType="passenger2a" speedFactor="0.97" vaporized=""/>
    <tripinfo id="6FRtoLU.383" depart="25045.00" departLane="-32426#0_0" departPos="5.10" departSpeed="13.89" departDelay="4.00" arrival="25319.00" arrivalLane="-32400#5_0" arrivalPos="257.03" arrivalSpeed="34.37" duration="274.00" routeLength="6507.94" waitingTime="0.00" waitingCount="0" stopTime="0.00" timeLoss="28.21" rerouteNo="0" devices="tripinfo_6FRtoLU.383 routing_6FRtoLU.383" vType="passenger1" speedFactor="0.98" vaporized=""/>
    <tripinfo id="6FRtoLU.384" depart="25047.00" departLane="-32426#0_0" departPos="6.10" departSpeed="13.89" departDelay="2.00" arrival="25320.00" arrivalLane="-32400#5_0" arrivalPos="257.03" arrivalSpeed="35.57" duration="273.00" routeLength="6506.94" waitingTime="0.00" waitingCount="0" stopTime="0.00" timeLoss="34.75" rerouteNo="0" devices="tripinfo_6FRtoLU.384" vType="passenger3" speedFactor="1.01" vaporized=""/>