<?xml version="1.0" encoding="UTF-8"?>

<!-- generated on 2026-04-23 11:46:47 by Eclipse SUMO sumo Version 1.19.0
<configuration xmlns:xsi="http://www.w3.org/2001/XMLSchema-instance" xsi:noNamespaceSchemaLocation="http://sumo.dlr.de/xsd/sumoConfiguration.xsd">

    <input>
        <net-file value="LuSTScenario-master/scenario\lust.net.xml"/>
        <route-files value="LuSTScenario-master/scenario\buslines.rou.xml,LuSTScenario-master/scenario\DUARoutes/local.0.rou.xml,LuSTScenario-master/scenario\DUARoutes/local.1.rou.xml,LuSTScenario-master/scenario\DUARoutes/local.2.rou.xml,LuSTScenario-master/scenario\transit.rou.xml"/>
        <additional-files value="LuSTScenario-master/scenario\vtypes.add.xml,LuSTScenario-master/scenario\busstops.add.xml,LuSTScenario-master/scenario\e1detectors.add.xml,LuSTScenario-master/scenario\lust.poly.xml,LuSTScenario-master/scenario\tll.static.xml"/>
    </input>

    <output>
        <summary-output value="LuSTScenario-master/scenario\dua.static.summary.xml"/>
        <tripinfo-output value="LuSTScenario-master/scenario\dua.static.tripinfo.xml"/>
        <edgedata-output value="LuSTScenario-master/scenario\dua.static.edgedata.xml"/>
    </output>

    <time>
        <begin value="25000"/>
        <end value="25600"/>
        <step-length value="1"/>
    </time>

    <processing>
        <ignore-junction-blocker value="20"/>
        <ignore-route-errors value="true"/>
        <time-to-teleport value="600"/>
        <max-depart-delay value="600"/>
    </processing>

    <routing>
        <routing-algorithm value="dijkstra"/>
        <device.rerouting.probability value="0.70"/>
        <device.rerouting.period value="300"/>
        <device.rerouting.pre-period value="300"/>
    </routing>

    <report>
        <verbose value="true"/>
        <log value="LuSTScenario-master/scenario\dua.static.log"/>
    </report>

    <traci_server>
        <remote-port value="60455"/>
    </traci_server>

</configuration>
-->

<meandata xmlns:xsi="http://www.w3.org/2001/XMLSchema-instance" xsi:noNamespaceSchemaLocation="http://sumo.dlr.de/xsd/meandata_file.xsd">
</meandata>
